       N       E                     dE             d eps       ncg     rms          ort
DAV:   1    -0.111620666205E+04   -0.11162E+04   -0.16629E+03  2080   0.876E+01
DAV:   2    -0.112842532631E+04   -0.12219E+02   -0.12106E+02  2080   0.222E+01
DAV:   3    -0.112894257090E+04   -0.51724E+00   -0.51091E+00  2080   0.475E+00
DAV:   4    -0.112898536181E+04   -0.42791E-01   -0.42495E-01  2080   0.145E+00
DAV:   5    -0.112898965628E+04   -0.42945E-02   -0.42832E-02  2080   0.383E-01
DAV:   6    -0.112899015767E+04   -0.50140E-03   -0.50066E-03  2080   0.131E-01
DAV:   7    -0.112899022134E+04   -0.63669E-04   -0.63608E-04  2080   0.393E-02
DAV:   8    -0.112899022942E+04   -0.80777E-05   -0.80716E-05  2080   0.144E-02
DAV:   9    -0.112899023051E+04   -0.10893E-05   -0.10891E-05  2080   0.489E-03
DAV:  10    -0.112899023065E+04   -0.13685E-06   -0.13677E-06  2080   0.277E-03
DAV:  11    -0.112899023069E+04   -0.40687E-07   -0.40725E-07  2080   0.188E-03
DAV:  12    -0.112899023071E+04   -0.22061E-07   -0.22025E-07  2080   0.159E-03
SDA:  13    -0.301780291382E+03    0.82721E+03   -0.22025E-07  2080   0.314E+04 0.000E+00
CGA:  14    -0.798823967666E+03   -0.49704E+03   -0.46939E+03  2080   0.219E+03-0.103E+03
CGA:  15    -0.830798760881E+03   -0.31975E+02   -0.27521E+02  2080   0.175E+03-0.177E+02
CGA:  16    -0.853772418272E+03   -0.22974E+02   -0.23952E+02  2080   0.191E+03 0.105E+02
CGA:  17    -0.867889794897E+03   -0.14117E+02   -0.17095E+02  2080   0.639E+02-0.268E+02
CGA:  18    -0.876059266915E+03   -0.81695E+01   -0.79225E+01  2080   0.254E+02-0.717E+00
CGA:  19    -0.879842668373E+03   -0.37834E+01   -0.36599E+01  2080   0.119E+02-0.736E+00
CGA:  20    -0.881926479341E+03   -0.20838E+01   -0.20836E+01  2080   0.478E+01-0.575E-01
CGA:  21    -0.882834474895E+03   -0.90800E+00   -0.90656E+00  2080   0.284E+01 0.165E+00
CGA:  22    -0.883451911048E+03   -0.61744E+00   -0.61752E+00  2080   0.167E+01-0.140E-01
CGA:  23    -0.883841692884E+03   -0.38978E+00   -0.39131E+00  2080   0.128E+01 0.736E-02
CGA:  24    -0.884133863848E+03   -0.29217E+00   -0.29228E+00  2080   0.737E+00-0.787E-02
CGA:  25    -0.884366465577E+03   -0.23260E+00   -0.23568E+00  2080   0.532E+00-0.252E-01
CGA:  26    -0.884504846885E+03   -0.13838E+00   -0.13871E+00  2080   0.377E+00-0.659E-02
CGA:  27    -0.884613927913E+03   -0.10908E+00   -0.11131E+00  2080   0.276E+00-0.207E-01
CGA:  28    -0.884690987649E+03   -0.77060E-01   -0.77644E-01  2080   0.247E+00-0.509E-02
CGA:  29    -0.884764312982E+03   -0.73325E-01   -0.73683E-01  2080   0.221E+00-0.253E-02
CGA:  30    -0.884832316698E+03   -0.68004E-01   -0.67911E-01  2080   0.216E+00 0.257E-02
CGA:  31    -0.884895347363E+03   -0.63031E-01   -0.62276E-01  2080   0.204E+00 0.120E-01
CGA:  32    -0.884958609126E+03   -0.63262E-01   -0.62162E-01  2080   0.181E+00 0.168E-01
CGA:  33    -0.885013306075E+03   -0.54697E-01   -0.53699E-01  2080   0.162E+00 0.173E-01
CGA:  34    -0.885064382373E+03   -0.51076E-01   -0.50116E-01  2080   0.136E+00 0.126E-01
CGA:  35    -0.885107161025E+03   -0.42779E-01   -0.42311E-01  2080   0.108E+00 0.442E-02
CGA:  36    -0.885138144560E+03   -0.30984E-01   -0.30954E-01  2080   0.791E-01-0.782E-03
CGA:  37    -0.885159874218E+03   -0.21730E-01   -0.21777E-01  2080   0.538E-01-0.134E-02
CGA:  38    -0.885173792760E+03   -0.13919E-01   -0.13944E-01  2080   0.367E-01-0.865E-03
CGA:  39    -0.885183769156E+03   -0.99764E-02   -0.99998E-02  2080   0.279E-01-0.500E-03
CGA:  40    -0.885191727514E+03   -0.79584E-02   -0.79735E-02  2080   0.233E-01-0.251E-03
CGA:  41    -0.885198801354E+03   -0.70738E-02   -0.70847E-02  2080   0.217E-01-0.150E-03
CGA:  42    -0.885205209947E+03   -0.64086E-02   -0.64100E-02  2080   0.196E-01-0.209E-04
CGA:  43    -0.885211358766E+03   -0.61488E-02   -0.61381E-02  2080   0.181E-01 0.148E-03
SDA:  44    -0.885216782383E+03   -0.54236E-02   -0.54102E-02  2080   0.166E-01 0.239E-03
CGA:  45    -0.885222827815E+03   -0.60454E-02   -0.60337E-02  2080   0.177E-01 0.102E-03
CGA:  46    -0.885228352646E+03   -0.55248E-02   -0.55172E-02  2080   0.702E-02 0.149E-03
CGA:  47    -0.885231274637E+03   -0.29220E-02   -0.29066E-02  2080   0.473E-02 0.104E-03
CGA:  48    -0.885232770543E+03   -0.14959E-02   -0.14938E-02  2080   0.311E-02 0.486E-04
CGA:  49    -0.885234145362E+03   -0.13748E-02   -0.13688E-02  2080   0.234E-02 0.375E-04
CGA:  50    -0.885235151921E+03   -0.10066E-02   -0.10029E-02  2080   0.208E-02 0.268E-04
CGA:  51    -0.885236221455E+03   -0.10695E-02   -0.10633E-02  2080   0.234E-02 0.270E-04
CGA:  52    -0.885237319130E+03   -0.10977E-02   -0.10946E-02  2080   0.230E-02 0.217E-04
CGA:  53    -0.885238619795E+03   -0.13007E-02   -0.12975E-02  2080   0.218E-02 0.121E-04
CGA:  54    -0.885239965149E+03   -0.13454E-02   -0.13459E-02  2080   0.301E-02-0.212E-05
CGA:  55    -0.885241525610E+03   -0.15605E-02   -0.15663E-02  2080   0.297E-02-0.301E-04
CGA:  56    -0.885243189112E+03   -0.16635E-02   -0.16760E-02  2080   0.281E-02-0.555E-04
CGA:  57    -0.885244549063E+03   -0.13600E-02   -0.13665E-02  2080   0.243E-02-0.459E-04
CGA:  58    -0.885245764401E+03   -0.12153E-02   -0.12167E-02  2080   0.263E-02-0.109E-04
CGA:  59    -0.885247203002E+03   -0.14386E-02   -0.14312E-02  2080   0.245E-02 0.367E-04
CGA:  60    -0.885248602008E+03   -0.13990E-02   -0.13864E-02  2080   0.254E-02 0.624E-04
CGA:  61    -0.885250071701E+03   -0.14697E-02   -0.14545E-02  2080   0.225E-02 0.758E-04
CGA:  62    -0.885251225112E+03   -0.11534E-02   -0.11486E-02  2080   0.172E-02 0.427E-04
CGA:  63    -0.885252156512E+03   -0.93140E-03   -0.92783E-03  2080   0.167E-02 0.227E-04
CGA:  64    -0.885252927501E+03   -0.77099E-03   -0.77057E-03  2080   0.127E-02 0.280E-05
CGA:  65    -0.885253606483E+03   -0.67898E-03   -0.68034E-03  2080   0.108E-02-0.116E-04
CGA:  66    -0.885254152917E+03   -0.54643E-03   -0.54698E-03  2080   0.881E-03-0.866E-05
CGA:  67    -0.885254604039E+03   -0.45112E-03   -0.45122E-03  2080   0.784E-03-0.169E-05
CGA:  68    -0.885255082193E+03   -0.47815E-03   -0.47566E-03  2080   0.930E-03 0.113E-04
CGA:  69    -0.885255672617E+03   -0.59042E-03   -0.58675E-03  2080   0.123E-02 0.180E-04
CGA:  70    -0.885256501891E+03   -0.82927E-03   -0.82303E-03  2080   0.153E-02 0.254E-04
CGA:  71    -0.885257437997E+03   -0.93611E-03   -0.93201E-03  2080   0.161E-02 0.227E-04
CGA:  72    -0.885258585954E+03   -0.11480E-02   -0.11455E-02  2080   0.211E-02 0.102E-04
CGA:  73    -0.885259804219E+03   -0.12183E-02   -0.12167E-02  2080   0.207E-02 0.552E-06
CGA:  74    -0.885261090904E+03   -0.12867E-02   -0.12910E-02  2080   0.202E-02-0.291E-04
SDA:  75    -0.885262058667E+03   -0.96776E-03   -0.96776E-03  2080   0.158E-02-0.399E-05
CGA:  76    -0.885262556930E+03   -0.49826E-03   -0.49917E-03  2080   0.104E-02 0.392E-05
CGA:  77    -0.885263093549E+03   -0.53662E-03   -0.53625E-03  2080   0.833E-03 0.108E-04
CGA:  78    -0.885263632579E+03   -0.53903E-03   -0.53705E-03  2080   0.706E-03 0.124E-04
CGA:  79    -0.885264021870E+03   -0.38929E-03   -0.38887E-03  2080   0.692E-03 0.752E-05
CGA:  80    -0.885264362583E+03   -0.34071E-03   -0.34072E-03  2080   0.581E-03 0.370E-05
CGA:  81    -0.885264694570E+03   -0.33199E-03   -0.33207E-03  2080   0.465E-03-0.122E-05
CGA:  82    -0.885264956649E+03   -0.26208E-03   -0.26238E-03  2080   0.403E-03-0.420E-05
CGA:  83    -0.885265177097E+03   -0.22045E-03   -0.22066E-03  2080   0.453E-03-0.393E-05
CGA:  84    -0.885265430363E+03   -0.25327E-03   -0.25331E-03  2080   0.481E-03-0.659E-06
CGA:  85    -0.885265767057E+03   -0.33669E-03   -0.33586E-03  2080   0.584E-03 0.417E-05
CGA:  86    -0.885266178194E+03   -0.41114E-03   -0.41023E-03  2080   0.734E-03 0.460E-05
CGA:  87    -0.885266607624E+03   -0.42943E-03   -0.42931E-03  2080   0.966E-03 0.157E-05
CGA:  88    -0.885267240271E+03   -0.63265E-03   -0.63308E-03  2080   0.116E-02-0.446E-05
CGA:  89    -0.885268194127E+03   -0.95386E-03   -0.95854E-03  2080   0.162E-02-0.163E-04
CGA:  90    -0.885269261682E+03   -0.10676E-02   -0.10710E-02  2080   0.203E-02-0.265E-04
CGA:  91    -0.885270106421E+03   -0.84474E-03   -0.84345E-03  2080   0.136E-02-0.268E-05
CGA:  92    -0.885270798720E+03   -0.69230E-03   -0.69258E-03  2080   0.925E-03 0.805E-05
CGA:  93    -0.885271318332E+03   -0.51961E-03   -0.51937E-03  2080   0.664E-03 0.161E-04
CGA:  94    -0.885271649894E+03   -0.33156E-03   -0.33240E-03  2080   0.544E-03 0.152E-04
CGA:  95    -0.885271880406E+03   -0.23051E-03   -0.23186E-03  2080   0.331E-03 0.973E-05
CGA:  96    -0.885272045115E+03   -0.16471E-03   -0.16503E-03  2080   0.216E-03 0.612E-05
CGA:  97    -0.885272158285E+03   -0.11317E-03   -0.11325E-03  2080   0.185E-03 0.412E-05
CGA:  98    -0.885272253852E+03   -0.95567E-04   -0.95649E-04  2080   0.165E-03 0.335E-05
CGA:  99    -0.885272342534E+03   -0.88682E-04   -0.88692E-04  2080   0.142E-03 0.238E-05
CGA: 100    -0.885272429312E+03   -0.86777E-04   -0.86789E-04  2080   0.132E-03-0.196E-06
CGA: 101    -0.885272498619E+03   -0.69308E-04   -0.69291E-04  2080   0.140E-03-0.202E-05
CGA: 102    -0.885272571283E+03   -0.72663E-04   -0.72619E-04  2080   0.135E-03-0.481E-05
CGA: 103    -0.885272655040E+03   -0.83757E-04   -0.84666E-04  2080   0.151E-03-0.804E-05
CGA: 104    -0.885272745230E+03   -0.90191E-04   -0.90878E-04  2080   0.164E-03-0.693E-05
CGA: 105    -0.885272830236E+03   -0.85006E-04   -0.84999E-04  2080   0.176E-03-0.264E-05
SDA: 106    -0.885272918571E+03   -0.88335E-04   -0.88411E-04  2080   0.173E-03 0.181E-05
CGA: 107    -0.885272976100E+03   -0.57529E-04   -0.57921E-04  2080   0.113E-03 0.187E-05
CGA: 108    -0.885273036123E+03   -0.60024E-04   -0.60061E-04  2080   0.115E-03 0.497E-05
CGA: 109    -0.885273104642E+03   -0.68519E-04   -0.68242E-04  2080   0.927E-04 0.720E-05
CGA: 110    -0.885273166408E+03   -0.61766E-04   -0.61249E-04  2080   0.824E-04 0.590E-05
CGA: 111    -0.885273213784E+03   -0.47377E-04   -0.47373E-04  2080   0.826E-04 0.187E-05
CGA: 112    -0.885273254795E+03   -0.41011E-04   -0.40998E-04  2080   0.716E-04-0.236E-06
CGA: 113    -0.885273295340E+03   -0.40545E-04   -0.40588E-04  2080   0.660E-04-0.132E-05
CGA: 114    -0.885273333929E+03   -0.38589E-04   -0.38705E-04  2080   0.677E-04-0.194E-05
CGA: 115    -0.885273371323E+03   -0.37395E-04   -0.37452E-04  2080   0.773E-04-0.191E-05
CGA: 116    -0.885273415422E+03   -0.44099E-04   -0.44207E-04  2080   0.835E-04-0.230E-05
CGA: 117    -0.885273472444E+03   -0.57022E-04   -0.57593E-04  2080   0.104E-03-0.342E-05
CGA: 118    -0.885273545044E+03   -0.72600E-04   -0.73524E-04  2080   0.142E-03-0.507E-05
CGA: 119    -0.885273623990E+03   -0.78945E-04   -0.79060E-04  2080   0.162E-03-0.511E-05
CGA: 120    -0.885273717184E+03   -0.93195E-04   -0.93300E-04  2080   0.161E-03-0.306E-05
CGA: 121    -0.885273820089E+03   -0.10290E-03   -0.10276E-03  2080   0.157E-03 0.163E-05
CGA: 122    -0.885273920228E+03   -0.10014E-03   -0.99755E-04  2080   0.153E-03 0.640E-05
CGA: 123    -0.885273989546E+03   -0.69318E-04   -0.70063E-04  2080   0.119E-03 0.570E-05
CGA: 124    -0.885274050069E+03   -0.60522E-04   -0.60838E-04  2080   0.712E-04 0.417E-05
CGA: 125    -0.885274095170E+03   -0.45102E-04   -0.45011E-04  2080   0.609E-04 0.180E-05
CGA: 126    -0.885274125247E+03   -0.30077E-04   -0.30088E-04  2080   0.482E-04 0.124E-06
CGA: 127    -0.885274146882E+03   -0.21634E-04   -0.21575E-04  2080   0.345E-04-0.530E-06
CGA: 128    -0.885274166006E+03   -0.19124E-04   -0.19130E-04  2080   0.241E-04-0.890E-06
CGA: 129    -0.885274180440E+03   -0.14434E-04   -0.14448E-04  2080   0.231E-04-0.233E-06
CGA: 130    -0.885274191793E+03   -0.11353E-04   -0.11360E-04  2080   0.217E-04 0.116E-06
CGA: 131    -0.885274204462E+03   -0.12669E-04   -0.12671E-04  2080   0.208E-04-0.670E-07
CGA: 132    -0.885274218588E+03   -0.14126E-04   -0.14196E-04  2080   0.239E-04-0.535E-06
CGA: 133    -0.885274235446E+03   -0.16858E-04   -0.17140E-04  2080   0.338E-04-0.160E-05
CGA: 134    -0.885274256142E+03   -0.20696E-04   -0.20866E-04  2080   0.490E-04-0.186E-05
CGA: 135    -0.885274284554E+03   -0.28412E-04   -0.28511E-04  2080   0.588E-04-0.242E-05
CGA: 136    -0.885274327668E+03   -0.43114E-04   -0.43673E-04  2080   0.916E-04-0.270E-05
SDA: 137    -0.885274385502E+03   -0.57834E-04   -0.57993E-04  2080   0.155E-03-0.174E-05
CGA: 138    -0.885274427202E+03   -0.41700E-04   -0.42061E-04  2080   0.786E-04 0.105E-05
CGA: 139    -0.885274466349E+03   -0.39146E-04   -0.39371E-04  2080   0.592E-04 0.284E-05
CGA: 140    -0.885274501576E+03   -0.35228E-04   -0.35220E-04  2080   0.506E-04 0.319E-05
CGA: 141    -0.885274528374E+03   -0.26798E-04   -0.26968E-04  2080   0.440E-04 0.259E-05
CGA: 142    -0.885274549686E+03   -0.21312E-04   -0.21509E-04  2080   0.331E-04 0.191E-05
CGA: 143    -0.885274567670E+03   -0.17984E-04   -0.18013E-04  2080   0.263E-04 0.693E-06
CGA: 144    -0.885274583753E+03   -0.16083E-04   -0.16078E-04  2080   0.223E-04 0.160E-06
CGA: 145    -0.885274597484E+03   -0.13732E-04   -0.13747E-04  2080   0.269E-04-0.300E-06
CGA: 146    -0.885274610913E+03   -0.13428E-04   -0.13422E-04  2080   0.247E-04-0.985E-07
CGA: 147    -0.885274627536E+03   -0.16623E-04   -0.16602E-04  2080   0.283E-04 0.184E-06
CGA: 148    -0.885274646399E+03   -0.18864E-04   -0.18891E-04  2080   0.353E-04-0.305E-06
CGA: 149    -0.885274670282E+03   -0.23883E-04   -0.24028E-04  2080   0.489E-04-0.124E-05
CGA: 150    -0.885274700922E+03   -0.30640E-04   -0.30821E-04  2080   0.686E-04-0.238E-05
CGA: 151    -0.885274748828E+03   -0.47906E-04   -0.48531E-04  2080   0.996E-04-0.370E-05
CGA: 152    -0.885274829609E+03   -0.80781E-04   -0.82748E-04  2080   0.173E-03-0.676E-05
CGA: 153    -0.885274927646E+03   -0.98037E-04   -0.98068E-04  2080   0.238E-03-0.634E-05
CGA: 154    -0.885275043421E+03   -0.11578E-03   -0.11541E-03  2080   0.215E-03 0.364E-05
CGA: 155    -0.885275175416E+03   -0.13199E-03   -0.13196E-03  2080   0.209E-03 0.145E-04
CGA: 156    -0.885275281949E+03   -0.10653E-03   -0.10770E-03  2080   0.242E-03 0.128E-04
CGA: 157    -0.885275387468E+03   -0.10552E-03   -0.10627E-03  2080   0.172E-03 0.923E-05
CGA: 158    -0.885275471422E+03   -0.83953E-04   -0.84943E-04  2080   0.175E-03 0.112E-04
CGA: 159    -0.885275547924E+03   -0.76502E-04   -0.78409E-04  2080   0.194E-03 0.131E-04
CGA: 160    -0.885275649874E+03   -0.10195E-03   -0.10285E-03  2080   0.217E-03 0.117E-04
CGA: 161    -0.885275760587E+03   -0.11071E-03   -0.11076E-03  2080   0.278E-03 0.445E-05
CGA: 162    -0.885275858084E+03   -0.97497E-04   -0.10038E-03  2080   0.255E-03 0.215E-04
CGA: 163    -0.885275957026E+03   -0.98942E-04   -0.10543E-03  2080   0.327E-03 0.473E-04
CGA: 164    -0.885276086640E+03   -0.12961E-03   -0.14102E-03  2080   0.401E-03 0.762E-04
CGA: 165    -0.885276263622E+03   -0.17698E-03   -0.18740E-03  2080   0.501E-03 0.890E-04
CGA: 166    -0.885276400364E+03   -0.13674E-03   -0.16595E-03  2080   0.525E-03 0.110E-03
CGA: 167    -0.885276493438E+03   -0.93074E-04   -0.15528E-03  2080   0.642E-03 0.176E-03
SDA: 168    -0.885276592388E+03   -0.98950E-04   -0.18484E-03  2080   0.731E-03 0.214E-03
CGA: 169    -0.885277009380E+03   -0.41699E-03   -0.41770E-03  2080   0.992E-03-0.658E-05
CGA: 170    -0.885277427218E+03   -0.41784E-03   -0.41601E-03  2080   0.475E-03-0.628E-05
CGA: 171    -0.885277605900E+03   -0.17868E-03   -0.17897E-03  2080   0.282E-03 0.500E-05
CGA: 172    -0.885277756075E+03   -0.15017E-03   -0.14995E-03  2080   0.307E-03 0.641E-05
CGA: 173    -0.885277962018E+03   -0.20594E-03   -0.20410E-03  2080   0.374E-03 0.103E-04
CGA: 174    -0.885278151371E+03   -0.18935E-03   -0.18937E-03  2080   0.221E-03 0.379E-05
CGA: 175    -0.885278246210E+03   -0.94839E-04   -0.94848E-04  2080   0.131E-03 0.334E-06
CGA: 176    -0.885278311682E+03   -0.65472E-04   -0.65491E-04  2080   0.116E-03-0.187E-05
CGA: 177    -0.885278396295E+03   -0.84613E-04   -0.85771E-04  2080   0.180E-03-0.438E-05
CGA: 178    -0.885278508085E+03   -0.11179E-03   -0.11252E-03  2080   0.223E-03-0.502E-05
CGA: 179    -0.885278651317E+03   -0.14323E-03   -0.14375E-03  2080   0.229E-03-0.304E-05
CGA: 180    -0.885278784839E+03   -0.13352E-03   -0.13340E-03  2080   0.238E-03 0.232E-05
CGA: 181    -0.885278945560E+03   -0.16072E-03   -0.15997E-03  2080   0.262E-03 0.530E-05
CGA: 182    -0.885279131763E+03   -0.18620E-03   -0.18552E-03  2080   0.341E-03 0.446E-05
CGA: 183    -0.885279380479E+03   -0.24872E-03   -0.24827E-03  2080   0.421E-03 0.586E-05
CGA: 184    -0.885279626945E+03   -0.24647E-03   -0.24611E-03  2080   0.434E-03 0.170E-04
CGA: 185    -0.885279897992E+03   -0.27105E-03   -0.27004E-03  2080   0.378E-03 0.199E-04
CGA: 186    -0.885280159794E+03   -0.26180E-03   -0.26092E-03  2080   0.400E-03 0.611E-05
CGA: 187    -0.885280381047E+03   -0.22125E-03   -0.22127E-03  2080   0.330E-03 0.744E-05
CGA: 188    -0.885280549733E+03   -0.16869E-03   -0.16936E-03  2080   0.220E-03 0.170E-04
CGA: 189    -0.885280678426E+03   -0.12869E-03   -0.12864E-03  2080   0.155E-03 0.983E-05
CGA: 190    -0.885280773371E+03   -0.94945E-04   -0.94924E-04  2080   0.125E-03 0.420E-06
CGA: 191    -0.885280835481E+03   -0.62110E-04   -0.61934E-04  2080   0.933E-04-0.195E-05
CGA: 192    -0.885280882881E+03   -0.47400E-04   -0.47379E-04  2080   0.752E-04-0.977E-07
CGA: 193    -0.885280925783E+03   -0.42902E-04   -0.42901E-04  2080   0.726E-04 0.832E-07
CGA: 194    -0.885280972753E+03   -0.46970E-04   -0.46956E-04  2080   0.643E-04-0.948E-07
CGA: 195    -0.885281011630E+03   -0.38878E-04   -0.38859E-04  2080   0.586E-04 0.535E-06
CGA: 196    -0.885281040952E+03   -0.29322E-04   -0.29392E-04  2080   0.491E-04 0.136E-05
CGA: 197    -0.885281071861E+03   -0.30909E-04   -0.30760E-04  2080   0.491E-04 0.271E-05
CGA: 198    -0.885281109662E+03   -0.37801E-04   -0.37365E-04  2080   0.644E-04 0.257E-05
SDA: 199    -0.885281155343E+03   -0.45681E-04   -0.45616E-04  2080   0.938E-04 0.100E-05
CGA: 200    -0.885281186306E+03   -0.30963E-04   -0.30895E-04  2080   0.487E-04-0.278E-06
CGA: 201    -0.885281210452E+03   -0.24146E-04   -0.24066E-04  2080   0.330E-04-0.128E-05
CGA: 202    -0.885281229621E+03   -0.19169E-04   -0.19214E-04  2080   0.291E-04-0.111E-05
CGA: 203    -0.885281249854E+03   -0.20234E-04   -0.20319E-04  2080   0.414E-04-0.518E-06
CGA: 204    -0.885281279594E+03   -0.29739E-04   -0.29746E-04  2080   0.632E-04-0.392E-07
CGA: 205    -0.885281317265E+03   -0.37672E-04   -0.37645E-04  2080   0.542E-04 0.121E-05
CGA: 206    -0.885281350091E+03   -0.32825E-04   -0.32807E-04  2080   0.482E-04 0.102E-05
CGA: 207    -0.885281383334E+03   -0.33244E-04   -0.33153E-04  2080   0.540E-04 0.941E-06
CGA: 208    -0.885281431353E+03   -0.48019E-04   -0.47826E-04  2080   0.853E-04 0.680E-06
CGA: 209    -0.885281486365E+03   -0.55011E-04   -0.55009E-04  2080   0.128E-03 0.200E-07
CGA: 210    -0.885281565275E+03   -0.78910E-04   -0.78915E-04  2080   0.128E-03-0.352E-06
CGA: 211    -0.885281682451E+03   -0.11718E-03   -0.11745E-03  2080   0.191E-03-0.789E-06
CGA: 212    -0.885281801738E+03   -0.11929E-03   -0.11930E-03  2080   0.238E-03 0.199E-06
CGA: 213    -0.885281920965E+03   -0.11923E-03   -0.11940E-03  2080   0.198E-03 0.277E-05
CGA: 214    -0.885282048533E+03   -0.12757E-03   -0.12754E-03  2080   0.160E-03 0.145E-05
CGA: 215    -0.885282146016E+03   -0.97482E-04   -0.97479E-04  2080   0.144E-03-0.423E-06
CGA: 216    -0.885282212757E+03   -0.66741E-04   -0.66677E-04  2080   0.106E-03-0.175E-06
CGA: 217    -0.885282266782E+03   -0.54025E-04   -0.53956E-04  2080   0.798E-04-0.680E-06
CGA: 218    -0.885282317807E+03   -0.51025E-04   -0.51011E-04  2080   0.799E-04 0.316E-06
CGA: 219    -0.885282360699E+03   -0.42891E-04   -0.42956E-04  2080   0.639E-04 0.100E-05
CGA: 220    -0.885282390753E+03   -0.30054E-04   -0.30215E-04  2080   0.468E-04 0.124E-05
CGA: 221    -0.885282410743E+03   -0.19990E-04   -0.20233E-04  2080   0.272E-04 0.147E-05
CGA: 222    -0.885282426742E+03   -0.15999E-04   -0.16008E-04  2080   0.236E-04 0.727E-06
CGA: 223    -0.885282441597E+03   -0.14854E-04   -0.14857E-04  2080   0.252E-04-0.936E-07
CGA: 224    -0.885282455319E+03   -0.13722E-04   -0.13709E-04  2080   0.260E-04-0.382E-06
CGA: 225    -0.885282469126E+03   -0.13806E-04   -0.13776E-04  2080   0.217E-04-0.686E-06
CGA: 226    -0.885282483245E+03   -0.14119E-04   -0.14171E-04  2080   0.211E-04-0.567E-06
CGA: 227    -0.885282496391E+03   -0.13146E-04   -0.13172E-04  2080   0.280E-04-0.469E-06
CGA: 228    -0.885282510511E+03   -0.14120E-04   -0.14085E-04  2080   0.246E-04-0.457E-06
CGA: 229    -0.885282524830E+03   -0.14318E-04   -0.14319E-04  2080   0.221E-04-0.880E-07
SDA: 230    -0.885282540446E+03   -0.15616E-04   -0.15573E-04  2080   0.356E-04 0.383E-06
CGA: 231    -0.885208881939E+03    0.73659E-01   -0.59874E-08  2080   0.637E-01 0.956E-04
CGA: 232    -0.885277139242E+03   -0.68257E-01   -0.65780E-01  2080   0.230E-01 0.525E-02
CGA: 233    -0.885281919656E+03   -0.47804E-02   -0.47312E-02  2080   0.965E-03 0.194E-03
CGA: 234    -0.885282312307E+03   -0.39265E-03   -0.39132E-03  2080   0.537E-03-0.673E-05
CGA: 235    -0.885282533208E+03   -0.22090E-03   -0.22078E-03  2080   0.151E-03-0.141E-05
CGA: 236    -0.885282574593E+03   -0.41386E-04   -0.41134E-04  2080   0.225E-04-0.663E-06
CGA: 237    -0.885282581843E+03   -0.72499E-05   -0.72651E-05  2080   0.957E-05 0.776E-07
CGA: 238    -0.885282588292E+03   -0.64486E-05   -0.63515E-05  2080   0.129E-04 0.716E-06
CGA: 239    -0.885282599331E+03   -0.11040E-04   -0.11052E-04  2080   0.215E-04-0.534E-07
CGA: 240    -0.885282612089E+03   -0.12757E-04   -0.12737E-04  2080   0.222E-04 0.396E-06
CGA: 241    -0.885282626453E+03   -0.14364E-04   -0.14434E-04  2080   0.257E-04-0.783E-06
CGA: 242    -0.885282639184E+03   -0.12731E-04   -0.12719E-04  2080   0.225E-04-0.295E-06
CGA: 243    -0.885282651636E+03   -0.12452E-04   -0.12449E-04  2080   0.214E-04 0.368E-06
CGA: 244    -0.885282665334E+03   -0.13697E-04   -0.13691E-04  2080   0.318E-04 0.940E-07
CGA: 245    -0.885282692023E+03   -0.26690E-04   -0.26312E-04  2080   0.630E-04 0.142E-05
CGA: 246    -0.885282732615E+03   -0.40592E-04   -0.40547E-04  2080   0.740E-04 0.953E-06
CGA: 247    -0.885282775361E+03   -0.42746E-04   -0.42746E-04  2080   0.813E-04-0.294E-06
CGA: 248    -0.885282818002E+03   -0.42641E-04   -0.42599E-04  2080   0.776E-04-0.614E-06
CGA: 249    -0.885282858629E+03   -0.40627E-04   -0.40540E-04  2080   0.860E-04-0.172E-05
CGA: 250    -0.885282898549E+03   -0.39920E-04   -0.39815E-04  2080   0.678E-04-0.836E-06
CGA: 251    -0.885282937222E+03   -0.38672E-04   -0.38665E-04  2080   0.624E-04 0.624E-06
CGA: 252    -0.885282962575E+03   -0.25353E-04   -0.25397E-04  2080   0.401E-04 0.240E-06
CGA: 253    -0.885282978888E+03   -0.16313E-04   -0.16488E-04  2080   0.235E-04 0.121E-05
CGA: 254    -0.885282990549E+03   -0.11661E-04   -0.11723E-04  2080   0.207E-04 0.987E-06
CGA: 255    -0.885282999591E+03   -0.90426E-05   -0.90977E-05  2080   0.167E-04 0.459E-06
CGA: 256    -0.885283008404E+03   -0.88123E-05   -0.88289E-05  2080   0.128E-04 0.840E-06
CGA: 257    -0.885283015155E+03   -0.67513E-05   -0.67586E-05  2080   0.124E-04 0.252E-06
CGA: 258    -0.885283020611E+03   -0.54562E-05   -0.54643E-05  2080   0.869E-05 0.100E-06
CGA: 259    -0.885283025216E+03   -0.46050E-05   -0.46048E-05  2080   0.817E-05-0.270E-08
CGA: 260    -0.885283029507E+03   -0.42905E-05   -0.42877E-05  2080   0.102E-04-0.545E-06
CGA: 261    -0.885283034796E+03   -0.52890E-05   -0.53073E-05  2080   0.109E-04-0.595E-06
SDA: 262    -0.885283040902E+03   -0.61062E-05   -0.61516E-05  2080   0.138E-04-0.646E-06
CGA: 263    -0.885283044839E+03   -0.39365E-05   -0.39385E-05  2080   0.845E-05 0.166E-08
CGA: 264    -0.885283051133E+03   -0.62947E-05   -0.61560E-05  2080   0.840E-05 0.669E-06
CGA: 265    -0.885283055295E+03   -0.41622E-05   -0.41983E-05  2080   0.555E-05 0.517E-06
CGA: 266    -0.885283058949E+03   -0.36534E-05   -0.36244E-05  2080   0.634E-05 0.331E-06
CGA: 267    -0.885283062824E+03   -0.38757E-05   -0.38620E-05  2080   0.703E-05 0.323E-06
CGA: 268    -0.885283068495E+03   -0.56707E-05   -0.56849E-05  2080   0.838E-05-0.530E-07
CGA: 269    -0.885283072963E+03   -0.44676E-05   -0.44650E-05  2080   0.644E-05-0.257E-06
CGA: 270    -0.885283077874E+03   -0.49109E-05   -0.50616E-05  2080   0.946E-05-0.566E-06
CGA: 271    -0.885283084383E+03   -0.65094E-05   -0.66873E-05  2080   0.157E-04-0.833E-06
CGA: 272    -0.885283094776E+03   -0.10392E-04   -0.10464E-04  2080   0.195E-04-0.460E-06
CGA: 273    -0.885283106905E+03   -0.12130E-04   -0.12117E-04  2080   0.183E-04 0.239E-06
CGA: 274    -0.885283119161E+03   -0.12256E-04   -0.12158E-04  2080   0.209E-04 0.130E-05
CGA: 275    -0.885283133638E+03   -0.14477E-04   -0.14390E-04  2080   0.241E-04 0.153E-05
CGA: 276    -0.885283150890E+03   -0.17251E-04   -0.17217E-04  2080   0.240E-04 0.469E-06
CGA: 277    -0.885283164427E+03   -0.13538E-04   -0.13529E-04  2080   0.180E-04-0.180E-06
CGA: 278    -0.885283174318E+03   -0.98904E-05   -0.98481E-05  2080   0.136E-04-0.107E-05
CGA: 279    -0.885283181690E+03   -0.73719E-05   -0.73587E-05  2080   0.101E-04-0.930E-06
CGA: 280    -0.885283186556E+03   -0.48661E-05   -0.48334E-05  2080   0.630E-05-0.435E-06
CGA: 281    -0.885283189179E+03   -0.26232E-05   -0.26451E-05  2080   0.341E-05 0.156E-06
CGA: 282    -0.885283190712E+03   -0.15334E-05   -0.15746E-05  2080   0.199E-05 0.330E-06
CGA: 283    -0.885283191976E+03   -0.12640E-05   -0.12615E-05  2080   0.165E-05 0.294E-06
CGA: 284    -0.885283193174E+03   -0.11979E-05   -0.11839E-05  2080   0.169E-05 0.248E-06
CGA: 285    -0.885283194391E+03   -0.12172E-05   -0.12136E-05  2080   0.165E-05 0.772E-07
CGA: 286    -0.885283195385E+03   -0.99394E-06   -0.99382E-06  2080   0.144E-05 0.740E-07
   1 F= -.89931504E+03 E0= -.89931504E+03  d E =-.364126E-12  mag=     2.0000
