 vasp.6.3.0 20Jan22 (build Mar 16 2023 12:23:28) complex                        
  
 executed on             LinuxIFC date 2023.09.21  21:49:34
 running on   64 total cores
 distrk:  each k-point on   64 cores,    1 groups
 distr:  one band on NCORE=   8 cores,    8 groups


--------------------------------------------------------------------------------------------------------


 INCAR:
   ENCUT = 415.000000
   SIGMA = 0.050000
   EDIFF = 1.00e-06
   ALGO = ALL
   PREC = Accurate
   ICHARG = 2
   IDIPOL = 3
   ISMEAR = 0
   ISPIN = 2
   ISTART = 1
   LDAUPRINT = 0
   LDAUTYPE = 2
   LORBIT = 11
   NELM = 500
   NELMDL = -12
   NPAR = 8
   NUPDOWN = 2
   NWRITE = 2
   IVDW = 11
   NEDOS = 1001
   LDAUL = 3 -1 -1
   MAGMOM = 2*1.0000 108*0.0000
   LDAUU = 4.5000 0.0000 0.0000
   LDAUJ = 0.0000 0.0000 0.0000
   ADDGRID = .TRUE.
   LASPH = .TRUE.
   LCHARG = .TRUE.
   LDAU = .TRUE.
   LDIPOL = .TRUE.
   LWAVE = .TRUE.
   LREAL = .FALSE.

 POTCAR:    PAW_PBE Ce_h 03Mar2005                
 POTCAR:    PAW_PBE O 08Apr2002                   
 POTCAR:    PAW_PBE H_s 15May2010                 
 POTCAR:    PAW_PBE Ce_h 03Mar2005                
   VRHFIN =Ce : [core=Xe4] s2d1f1                                                                   
   LEXCH  = PE                                                                                      
   EATOM  =  1063.0861 eV,   78.1346 Ry                                                             
                                                                                                    
   TITEL  = PAW_PBE Ce_h 03Mar2005                                                                  
   LULTRA =        F    use ultrasoft PP ?                                                          
   IUNSCR =        1    unscreen: 0-lin 1-nonlin 2-no                                               
   RPACOR =    1.800    partial core radius                                                         
   POMASS =  140.115; ZVAL   =   12.000    mass and valenz                                          
   RCORE  =    2.570    outmost cutoff radius                                                       
   RWIGS  =    2.500; RWIGS  =    1.323    wigner-seitz radius (au A)                               
   ENMAX  =  299.900; ENMIN  =  224.925 eV                                                          
   RCLOC  =    1.810    cutoff for local pot                                                        
   LCOR   =        T    correct aug charges                                                         
   LPAW   =        T    paw PP                                                                      
   EAUG   =  659.424                                                                                
   DEXC   =    0.000                                                                                
   RMAX   =    2.621    core radius for proj-oper                                                   
   RAUG   =    1.300    factor for augmentation sphere                                              
   RDEP   =    2.636    radius for radial grids                                                     
   RDEPT  =    2.028    core radius for aug-charge                                                  
                                                                                                    
   Atomic configuration                                                                             
   14 entries                                                                                       
     n  l   j            E        occ.                                                              
     1  0  0.50    -40258.9816   2.0000                                                             
     2  0  0.50     -6445.4884   2.0000                                                             
     2  1  1.50     -5771.7470   6.0000                                                             
     3  0  0.50     -1387.9739   2.0000                                                             
     3  1  1.50     -1173.8158   6.0000                                                             
     3  2  2.50      -869.9108  10.0000                                                             
     4  0  0.50      -280.8706   2.0000                                                             
     4  1  1.50      -210.9815   6.0000                                                             
     4  2  2.50      -110.4558  10.0000                                                             
     5  0  0.50       -40.5819   2.0000                                                             
     6  0  0.50        -3.7444   2.0000                                                             
     5  1  1.50       -23.2188   6.0000                                                             
     5  2  2.50        -3.0598   1.0000                                                             
     4  3  2.50        -5.3970   1.0000                                                             
   Description                                                                                      
     l       E           TYP  RCUT    TYP  RCUT                                                     
     0    -40.5819164     23  1.500                                                                 
     0     -3.7443793     23  1.650                                                                 
     1    -23.2188445     23  1.800                                                                 
     1     13.6058260     23  1.800                                                                 
     2     -3.0597556     23  2.300                                                                 
     2      3.8919711     23  2.300                                                                 
     3     -5.3970469     23  2.570                                                                 
     3     -6.1226217     23  2.570                                                                 
  local pseudopotential read in
  partial core-charges read in
  partial kinetic energy density read in
  atomic valenz-charges read in
  non local Contribution for L=           0  read in
    real space projection operators read in
  non local Contribution for L=           0  read in
    real space projection operators read in
  non local Contribution for L=           1  read in
    real space projection operators read in
  non local Contribution for L=           1  read in
    real space projection operators read in
  non local Contribution for L=           2  read in
    real space projection operators read in
  non local Contribution for L=           2  read in
    real space projection operators read in
  non local Contribution for L=           3  read in
    real space projection operators read in
  non local Contribution for L=           3  read in
    real space projection operators read in
    PAW grid and wavefunctions read in
 
   number of l-projection  operators is LMAX  =           8
   number of lm-projection operators is LMMAX =          32
 
 POTCAR:    PAW_PBE O 08Apr2002                   
   VRHFIN =O: s2p4                                                                                  
   LEXCH  = PE                                                                                      
   EATOM  =   432.3788 eV,   31.7789 Ry                                                             
                                                                                                    
   TITEL  = PAW_PBE O 08Apr2002                                                                     
   LULTRA =        F    use ultrasoft PP ?                                                          
   IUNSCR =        1    unscreen: 0-lin 1-nonlin 2-no                                               
   RPACOR =    1.200    partial core radius                                                         
   POMASS =   16.000; ZVAL   =    6.000    mass and valenz                                          
   RCORE  =    1.520    outmost cutoff radius                                                       
   RWIGS  =    1.550; RWIGS  =    0.820    wigner-seitz radius (au A)                               
   ENMAX  =  400.000; ENMIN  =  300.000 eV                                                          
   ICORE  =        2    local potential                                                             
   LCOR   =        T    correct aug charges                                                         
   LPAW   =        T    paw PP                                                                      
   EAUG   =  605.392                                                                                
   DEXC   =    0.000                                                                                
   RMAX   =    1.553    core radius for proj-oper                                                   
   RAUG   =    1.300    factor for augmentation sphere                                              
   RDEP   =    1.550    radius for radial grids                                                     
   RDEPT  =    1.329    core radius for aug-charge                                                  
                                                                                                    
   Atomic configuration                                                                             
    4 entries                                                                                       
     n  l   j            E        occ.                                                              
     1  0  0.50      -514.6923   2.0000                                                             
     2  0  0.50       -23.9615   2.0000                                                             
     2  1  0.50        -9.0305   4.0000                                                             
     3  2  1.50        -9.5241   0.0000                                                             
   Description                                                                                      
     l       E           TYP  RCUT    TYP  RCUT                                                     
     0    -23.9615318     23  1.200                                                                 
     0     -9.5240782     23  1.200                                                                 
     1     -9.0304911     23  1.520                                                                 
     1      8.1634956     23  1.520                                                                 
     2     -9.5240782      7  1.500                                                                 
  local pseudopotential read in
  partial core-charges read in
  partial kinetic energy density read in
  kinetic energy density of atom read in
  atomic valenz-charges read in
  non local Contribution for L=           0  read in
    real space projection operators read in
  non local Contribution for L=           0  read in
    real space projection operators read in
  non local Contribution for L=           1  read in
    real space projection operators read in
  non local Contribution for L=           1  read in
    real space projection operators read in
    PAW grid and wavefunctions read in
 
   number of l-projection  operators is LMAX  =           4
   number of lm-projection operators is LMMAX =           8
 
 POTCAR:    PAW_PBE H_s 15May2010                 
   VRHFIN =H: ultrasoft test                                                                        
   LEXCH  = PE                                                                                      
   EATOM  =    12.4884 eV,    0.9179 Ry                                                             
                                                                                                    
   TITEL  = PAW_PBE H_s 15May2010                                                                   
   LULTRA =        F    use ultrasoft PP ?                                                          
   IUNSCR =        0    unscreen: 0-lin 1-nonlin 2-no                                               
   RPACOR =    0.000    partial core radius                                                         
   POMASS =    1.000; ZVAL   =    1.000    mass and valenz                                          
   RCORE  =    1.300    outmost cutoff radius                                                       
   RWIGS  =    0.700; RWIGS  =    0.370    wigner-seitz radius (au A)                               
   ENMAX  =  200.000; ENMIN  =  150.000 eV                                                          
   RCLOC  =    0.701    cutoff for local pot                                                        
   LCOR   =        T    correct aug charges                                                         
   LPAW   =        T    paw PP                                                                      
   EAUG   =  300.000                                                                                
   RMAX   =    1.330    core radius for proj-oper                                                   
   RAUG   =    1.200    factor for augmentation sphere                                              
   RDEP   =    1.337    radius for radial grids                                                     
   RDEPT  =    1.114    core radius for aug-charge                                                  
                                                                                                    
   Atomic configuration                                                                             
    2 entries                                                                                       
     n  l   j            E        occ.                                                              
     1  0  0.50        -6.4927   1.0000                                                             
     2  1  0.50        -3.4015   0.0000                                                             
   Description                                                                                      
     l       E           TYP  RCUT    TYP  RCUT                                                     
     0     -6.4927494     23  1.300                                                                 
     0      6.8029130     23  1.300                                                                 
     1     -4.0817478     23  1.300                                                                 
  local pseudopotential read in
  atomic valenz-charges read in
  non local Contribution for L=           0  read in
    real space projection operators read in
  non local Contribution for L=           0  read in
    real space projection operators read in
  non local Contribution for L=           1  read in
    real space projection operators read in
    PAW grid and wavefunctions read in
 
   number of l-projection  operators is LMAX  =           3
   number of lm-projection operators is LMMAX =           5
 
 -----------------------------------------------------------------------------
|                                                                             |
|               ----> ADVICE to this user running VASP <----                  |
|                                                                             |
|     You have a (more or less) 'large supercell' and for larger cells it     |
|     might be more efficient to use real-space projection operators.         |
|     Therefore, try LREAL= Auto in the INCAR file.                           |
|     Mind: For very accurate calculation, you might also keep the            |
|     reciprocal projection scheme (i.e. LREAL=.FALSE.).                      |
|                                                                             |
 -----------------------------------------------------------------------------

  PAW_PBE Ce_h 03Mar2005                :
 energy of atom  1       EATOM=-1063.0861
 kinetic energy error for atom=    0.0408 (will be added to EATOM!!)
  PAW_PBE O 08Apr2002                   :
 energy of atom  2       EATOM= -432.3788
 kinetic energy error for atom=    0.0819 (will be added to EATOM!!)
  PAW_PBE H_s 15May2010                 :
 energy of atom  3       EATOM=  -12.4884
 kinetic energy error for atom=    0.0007 (will be added to EATOM!!)
 
 
 POSCAR: Ce  O  H
  positions in cartesian coordinates
  No initial velocities read in
 exchange correlation table for  LEXCH =        8
   RHO(1)=    0.500       N(1)  =     2000
   RHO(2)=  100.500       N(2)  =     4000
 


--------------------------------------------------------------------------------------------------------


 ion  position               nearest neighbor table
   1  0.217  0.767  0.366-  47 2.43  48 2.43  39 2.44  56 2.47  50 2.48
   2  0.890  0.776  0.365-  62 2.40  48 2.44  39 2.45  53 2.48  52 2.50  37 2.53
   3  0.222  0.110  0.363-  40 2.28  37 2.30  48 2.33  54 2.33  46 2.42  49 2.45  41 2.46
   4  0.207  0.432  0.364-  42 2.22  38 2.26  41 2.29  46 2.30  55 2.30  47 2.31
   5  0.557  0.113  0.364-  50 2.32  40 2.33  44 2.33  49 2.35  51 2.37  57 2.39  43 2.40
   6  0.561  0.435  0.365-  45 2.25  44 2.26  41 2.30  58 2.30  52 2.30  49 2.32
   7  0.563  0.793  0.365-  42 2.24  45 2.27  43 2.28  59 2.30  53 2.32  50 2.34
   8  0.890  0.111  0.364-  53 2.32  37 2.32  38 2.33  46 2.35  43 2.38  60 2.39  51 2.40
   9  0.888  0.443  0.364-  39 2.20  47 2.34  52 2.34  51 2.37  61 2.40  44 2.41  38 2.43
  10  0.112  0.221  0.251-  46 2.30  64 2.33  63 2.36  54 2.36  72 2.37  67 2.38  60 2.38  55 2.49

  11  0.112  0.556  0.252-  47 2.31  56 2.32  64 2.34  65 2.37  61 2.38  73 2.38  68 2.40  55 2.52

  12  0.111  0.887  0.253-  48 2.32  62 2.37  56 2.38  66 2.38  65 2.38  74 2.39  63 2.40  54 2.40

  13  0.443  0.222  0.251-  49 2.29  70 2.33  66 2.36  54 2.36  75 2.37  67 2.38  57 2.39  58 2.52

  14  0.444  0.556  0.246-  76 2.27  58 2.29  55 2.30  68 2.32  59 2.33  71 2.34  67 2.36
  15  0.443  0.888  0.253-  56 2.33  69 2.35  50 2.35  57 2.37  66 2.37  77 2.40  68 2.40  59 2.49

  16  0.778  0.222  0.252-  51 2.31  78 2.34  61 2.34  57 2.34  60 2.35  69 2.44  64 2.45  70 2.45

  17  0.778  0.556  0.252-  52 2.29  70 2.34  62 2.35  65 2.36  61 2.38  79 2.39  71 2.39  58 2.53

  18  0.779  0.888  0.252-  53 2.33  69 2.34  62 2.35  60 2.37  63 2.37  71 2.38  80 2.39  59 2.51

  19  1.000  0.999  0.140-  90 2.34  72 2.35  80 2.36  63 2.37  89 2.38  74 2.38  81 2.38  87 2.40

  20  0.000  0.333  0.140-  91 2.34  72 2.37  73 2.37  82 2.37  88 2.37  87 2.37  64 2.38  78 2.40

  21  1.000  0.666  0.140-  92 2.34  73 2.36  79 2.36  65 2.36  74 2.37  89 2.38  83 2.38  88 2.39

  22  0.333  0.999  0.140-  93 2.34  75 2.35  77 2.35  74 2.37  66 2.37  83 2.38  81 2.38  84 2.39

  23  0.332  0.331  0.138-  94 2.31  67 2.33  81 2.36  72 2.38  75 2.38  76 2.38  85 2.38  82 2.39

  24  0.333  0.668  0.139-  95 2.31  68 2.33  83 2.36  73 2.38  77 2.38  86 2.38  76 2.39  82 2.39

  25  0.666  0.999  0.140-  96 2.34  86 2.37  80 2.37  77 2.37  84 2.37  87 2.38  78 2.39  69 2.39

  26  0.666  0.333  0.140-  97 2.34  75 2.36  79 2.37  85 2.37  88 2.37  84 2.38  78 2.39  70 2.39

  27  0.669  0.668  0.139-  98 2.31  71 2.34  89 2.36  79 2.37  80 2.38  76 2.38  86 2.39  85 2.39

  28  0.222  0.111  0.028-  81 2.32 101 2.38  93 2.38 102 2.38  90 2.38  94 2.38  99 2.38
  29  0.222  0.444  0.028-  82 2.32  94 2.38  99 2.38 103 2.38  91 2.38  95 2.38 100 2.38
  30  0.222  0.778  0.028-  83 2.32  95 2.38 104 2.38 100 2.38  93 2.38  92 2.38 101 2.38
  31  0.556  0.111  0.028-  84 2.33 104 2.38  96 2.38 105 2.38  93 2.38  97 2.38 102 2.38
  32  0.556  0.444  0.028-  85 2.32 102 2.38  97 2.38 106 2.38  94 2.38  98 2.38 103 2.38
  33  0.556  0.778  0.028-  86 2.32 103 2.38  98 2.38 107 2.38  95 2.38  96 2.38 104 2.38
  34  0.889  0.111  0.028-  87 2.33 107 2.38  99 2.38  90 2.38  96 2.38  91 2.38 105 2.38
  35  0.889  0.444  0.028-  88 2.33 105 2.38  91 2.38 100 2.38  97 2.38  92 2.38 106 2.38
  36  0.889  0.778  0.028-  89 2.32 101 2.38  92 2.38 106 2.38  90 2.38  98 2.38 107 2.38
  37  0.010  0.015  0.392-   3 2.30   8 2.32   2 2.53
  38  0.998  0.327  0.394-   4 2.26   8 2.33   9 2.43
  39  0.988  0.644  0.393-   9 2.20   1 2.44   2 2.45
  40  0.346  0.031  0.397-   3 2.28   5 2.33
  41  0.341  0.347  0.384-   4 2.29   6 2.30   3 2.46
  42  0.351  0.642  0.381-   4 2.22   7 2.24
  43  0.670  0.004  0.394-   7 2.28   8 2.38   5 2.40
  44  0.664  0.329  0.394-   6 2.26   5 2.33   9 2.41
  45  0.633  0.648  0.384-   6 2.25   7 2.27
  46  0.107  0.221  0.333-   4 2.30  10 2.30   8 2.35   3 2.42
  47  0.104  0.543  0.334-  11 2.31   4 2.31   9 2.34   1 2.43
  48  0.117  0.892  0.335-  12 2.32   3 2.33   1 2.43   2 2.44
  49  0.450  0.223  0.333-  13 2.29   6 2.32   5 2.35   3 2.45
  50  0.449  0.897  0.336-   5 2.32   7 2.34  15 2.35   1 2.48
  51  0.778  0.222  0.335-  16 2.31   5 2.37   9 2.37   8 2.40
  52  0.772  0.544  0.333-  17 2.29   6 2.30   9 2.34   2 2.50
  53  0.778  0.895  0.335-   8 2.32   7 2.32  18 2.33   2 2.48
  54  0.223  0.113  0.280-   3 2.33  10 2.36  13 2.36  12 2.40
  55  0.241  0.451  0.283-  14 2.30   4 2.30  10 2.49  11 2.52
  56  0.223  0.774  0.278-  11 2.32  15 2.33  12 2.38   1 2.47
  57  0.557  0.111  0.279-  16 2.34  15 2.37   5 2.39  13 2.39
  58  0.543  0.453  0.284-  14 2.29   6 2.30  13 2.52  17 2.53
  59  0.546  0.761  0.284-   7 2.30  14 2.33  15 2.49  18 2.51
  60  0.888  0.111  0.279-  16 2.35  18 2.37  10 2.38   8 2.39
  61  0.888  0.442  0.278-  16 2.34  17 2.38  11 2.38   9 2.40
  62  0.888  0.776  0.279-  17 2.35  18 2.35  12 2.37   2 2.40
  63  0.000  1.000  0.224-  10 2.36  19 2.37  18 2.37  12 2.40
  64  0.007  0.336  0.224-  10 2.33  11 2.34  20 2.38  16 2.45
  65  0.999  0.665  0.224-  21 2.36  17 2.36  11 2.37  12 2.38
  66  0.334  0.000  0.224-  13 2.36  15 2.37  22 2.37  12 2.38
  67  0.333  0.332  0.221-  23 2.33  14 2.36  13 2.38  10 2.38
  68  0.334  0.666  0.222-  14 2.32  24 2.33  11 2.40  15 2.40
  69  0.663  0.992  0.225-  18 2.34  15 2.35  25 2.39  16 2.44
  70  0.662  0.337  0.225-  13 2.33  17 2.34  26 2.39  16 2.45
  71  0.666  0.667  0.222-  14 2.34  27 2.34  18 2.38  17 2.39
  72  0.110  0.221  0.167-  19 2.35  20 2.37  10 2.37  23 2.38
  73  0.110  0.555  0.167-  21 2.36  20 2.37  24 2.38  11 2.38
  74  0.111  0.888  0.168-  21 2.37  22 2.37  19 2.38  12 2.39
  75  0.444  0.221  0.167-  22 2.35  26 2.36  13 2.37  23 2.38
  76  0.445  0.555  0.166-  14 2.27  27 2.38  23 2.38  24 2.39
  77  0.444  0.890  0.167-  22 2.35  25 2.37  24 2.38  15 2.40
  78  0.777  0.222  0.169-  16 2.34  25 2.39  26 2.39  20 2.40
  79  0.778  0.555  0.167-  21 2.36  26 2.37  27 2.37  17 2.39
  80  0.779  0.890  0.167-  19 2.36  25 2.37  27 2.38  18 2.39
  81  0.222  0.110  0.111-  28 2.32  23 2.36  19 2.38  22 2.38
  82  0.221  0.444  0.111-  29 2.32  20 2.37  23 2.39  24 2.39
  83  0.222  0.778  0.111-  30 2.32  24 2.36  22 2.38  21 2.38
  84  0.557  0.111  0.111-  31 2.33  25 2.37  26 2.38  22 2.39
  85  0.556  0.444  0.111-  32 2.32  26 2.37  23 2.38  27 2.39
  86  0.556  0.779  0.111-  33 2.32  25 2.37  24 2.38  27 2.39
  87  0.888  0.111  0.111-  34 2.33  20 2.37  25 2.38  19 2.40
  88  0.888  0.443  0.111-  35 2.33  26 2.37  20 2.37  21 2.39
  89  0.889  0.778  0.111-  36 2.32  27 2.36  19 2.38  21 2.38
  90  0.000  0.000  0.056-  19 2.34  34 2.38  36 2.38  28 2.38
  91  1.000  0.333  0.056-  20 2.34  35 2.38  29 2.38  34 2.38
  92  1.000  0.667  0.056-  21 2.34  36 2.38  30 2.38  35 2.38
  93  0.333  0.000  0.056-  22 2.34  28 2.38  30 2.38  31 2.38
  94  0.333  0.333  0.056-  23 2.31  29 2.38  32 2.38  28 2.38
  95  0.333  0.667  0.056-  24 2.31  30 2.38  33 2.38  29 2.38
  96  0.667  0.000  0.056-  25 2.34  31 2.38  33 2.38  34 2.38
  97  0.667  0.333  0.056-  26 2.34  32 2.38  35 2.38  31 2.38
  98  0.667  0.667  0.056-  27 2.31  33 2.38  36 2.38  32 2.38
  99  0.111  0.222  0.000-  29 2.38  34 2.38  28 2.38
 100  0.111  0.556  0.000-  35 2.38  30 2.38  29 2.38
 101  0.111  0.889  0.000-  28 2.38  36 2.38  30 2.38
 102  0.444  0.222  0.000-  32 2.38  28 2.38  31 2.38
 103  0.444  0.556  0.000-  29 2.38  33 2.38  32 2.38
 104  0.444  0.889  0.000-  31 2.38  30 2.38  33 2.38
 105  0.778  0.222  0.000-  35 2.38  31 2.38  34 2.38
 106  0.778  0.556  0.000-  36 2.38  32 2.38  35 2.38
 107  0.778  0.889  0.000-  34 2.38  33 2.38  36 2.38
 108  0.292  0.842  0.454- 110 0.97 109 1.03
 109  0.317  0.933  0.441- 108 1.03
 110  0.236  0.824  0.482- 108 0.97
 
  LATTYP: Found a hexagonal cell.
 ALAT       =    11.6375999451
 C/A-ratio  =     2.4133583569
  
  Lattice vectors:
  
 A1 = (  11.6375999451,   0.0000000000,   0.0000000000)
 A2 = (  -5.8188004494,  10.0784580174,   0.0000000000)
 A3 = (   0.0000000000,   0.0000000000,  28.0856990814)


Analysis of symmetry for initial positions (statically):
=====================================================================
 Subroutine PRICEL returns:
 Original cell was already a primitive cell.
 

 Routine SETGRP: Setting up the symmetry group for a 
 hexagonal supercell.


 Subroutine GETGRP returns: Found  1 space group operations
 (whereof  1 operations were pure point group operations)
 out of a pool of 24 trial point group operations.


The static configuration has the point symmetry C_1 .


Analysis of symmetry for dynamics (positions and initial velocities):
=====================================================================
 Subroutine PRICEL returns:
 Original cell was already a primitive cell.
 

 Routine SETGRP: Setting up the symmetry group for a 
 hexagonal supercell.


 Subroutine GETGRP returns: Found  1 space group operations
 (whereof  1 operations were pure point group operations)
 out of a pool of 24 trial point group operations.


The dynamic configuration has the point symmetry C_1 .


Analysis of constrained symmetry for selective dynamics:
=====================================================================
 Subroutine PRICEL returns:
 Original cell was already a primitive cell.
 

 Routine SETGRP: Setting up the symmetry group for a 
 hexagonal supercell.


 Subroutine GETGRP returns: Found  1 space group operations
 (whereof  1 operations were pure point group operations)
 out of a pool of 24 trial point group operations.


The constrained configuration has the point symmetry C_1 .


Analysis of structural, dynamic, and magnetic symmetry:
=====================================================================
 Subroutine PRICEL returns:
 Original cell was already a primitive cell.
 

 Routine SETGRP: Setting up the symmetry group for a 
 hexagonal supercell.


 Subroutine GETGRP returns: Found  1 space group operations
 (whereof  1 operations were pure point group operations)
 out of a pool of 24 trial point group operations.


The overall configuration has the point symmetry C_1 .


 Subroutine INISYM returns: Found  1 space group operations
 (whereof  1 operations are pure point group operations),
 and found     1 'primitive' translations


----------------------------------------------------------------------------------------

                                     Primitive cell                                     

  volume of cell :    3294.1453

  direct lattice vectors                    reciprocal lattice vectors
    11.637599945  0.000000000  0.000000000     0.085928371  0.049610768  0.000000000
    -5.818800449 10.078458017  0.000000000     0.000000000  0.099221528  0.000000000
     0.000000000  0.000000000 28.085699081     0.000000000  0.000000000  0.035605309

  length of vectors
    11.637599945 11.637600899 28.085699081     0.099221536  0.099221528  0.035605309

  position of ions in fractional coordinates (direct lattice)
     0.217373812  0.767124717  0.366101652
     0.889791956  0.775839579  0.364760744
     0.221624708  0.110217038  0.362580107
     0.206570493  0.431943714  0.364158294
     0.556604563  0.113442594  0.363805399
     0.560949300  0.435213522  0.364519604
     0.563428922  0.793373319  0.365190538
     0.890171825  0.110749407  0.363780428
     0.887857107  0.443006788  0.363535716
     0.111613144  0.221142324  0.250979031
     0.111745108  0.555689640  0.251733883
     0.111441823  0.887044141  0.252647248
     0.443429309  0.221546327  0.251196659
     0.444349542  0.555779925  0.246199916
     0.442654569  0.887511987  0.252710784
     0.777531588  0.221504980  0.252367214
     0.777937202  0.556279810  0.251958651
     0.778667034  0.888149295  0.252284644
     0.999782008  0.999420540  0.139718802
     0.000179392  0.333225239  0.139542763
     0.999873473  0.666276052  0.139796031
     0.333362374  0.999353762  0.139725905
     0.332443083  0.331183930  0.138482449
     0.332537456  0.667571538  0.138739245
     0.666204573  0.999173494  0.139876652
     0.666429796  0.333314656  0.139594144
     0.668663054  0.667595023  0.138775754
     0.222223342  0.111110002  0.028193689
     0.222223339  0.444443322  0.028193689
     0.222223319  0.777776712  0.028193689
     0.555556645  0.111110002  0.028193689
     0.555556631  0.444443322  0.028193689
     0.555556612  0.777776712  0.028193689
     0.888889978  0.111110002  0.028193689
     0.888889985  0.444443322  0.028193689
     0.888889986  0.777776712  0.028193689
     0.009684325  0.014656391  0.392469857
     0.997721368  0.326858678  0.393721499
     0.987588433  0.644473086  0.393486885
     0.346203554  0.031297955  0.397002444
     0.341028725  0.347421727  0.383746487
     0.351250745  0.642464387  0.380809280
     0.669957884  0.004331570  0.394085749
     0.664461044  0.329358440  0.393669029
     0.632559532  0.647963521  0.383674647
     0.106595834  0.221092077  0.332959387
     0.104286779  0.543134847  0.333913513
     0.117479931  0.892361739  0.335328728
     0.449952951  0.222586227  0.332518128
     0.449040406  0.896604878  0.336475995
     0.777516999  0.221596539  0.334793132
     0.772311234  0.544135793  0.333435009
     0.777574478  0.895229617  0.335013988
     0.223121746  0.112823568  0.279727215
     0.240856133  0.451205063  0.283040605
     0.222900607  0.773627915  0.278031488
     0.557266931  0.110948597  0.278848647
     0.543484106  0.453462363  0.283688368
     0.546077224  0.760812788  0.284174732
     0.888200449  0.111428399  0.278765173
     0.887865499  0.442141581  0.278259378
     0.887748979  0.776345068  0.279171530
     0.000358139  0.999843257  0.224006871
     0.007317575  0.336016640  0.224385387
     0.999045953  0.665276213  0.223850089
     0.333586748  0.000153857  0.224279242
     0.333003246  0.332024125  0.221280861
     0.334229216  0.665857629  0.221744661
     0.662735208  0.991637276  0.224950112
     0.662049668  0.336709861  0.224703806
     0.666483995  0.667002341  0.222117463
     0.109909973  0.220610148  0.166662359
     0.110377980  0.555434590  0.166947846
     0.111262101  0.888230708  0.167621097
     0.444388800  0.220524484  0.166684306
     0.444776073  0.555249774  0.165534597
     0.444017201  0.889518269  0.167431596
     0.777345423  0.221814590  0.169177941
     0.778319429  0.555440540  0.166976167
     0.778972999  0.889580056  0.167226322
     0.221900071  0.110232284  0.110739832
     0.221376650  0.443886270  0.110743650
     0.222162595  0.777778226  0.110744060
     0.556877505  0.111298510  0.111010985
     0.556022034  0.443832437  0.110702370
     0.556029958  0.778696217  0.110861810
     0.887884790  0.111445914  0.111044988
     0.888099601  0.442871902  0.111046224
     0.889261670  0.777833886  0.110786080
     0.000000000  0.000000000  0.056387379
     0.999999998  0.333333343  0.056387379
     0.999999996  0.666666686  0.056387379
     0.333333333  0.000000000  0.056387379
     0.333333331  0.333333343  0.056387379
     0.333333329  0.666666686  0.056387379
     0.666666667  0.000000000  0.056387379
     0.666666685  0.333333343  0.056387379
     0.666666663  0.666666686  0.056387379
     0.111109999  0.222223340  0.000000000
     0.111109996  0.555556660  0.000000000
     0.111110007  0.888890050  0.000000000
     0.444443374  0.222223340  0.000000000
     0.444443360  0.555556660  0.000000000
     0.444443382  0.888890050  0.000000000
     0.777776748  0.222223340  0.000000000
     0.777776714  0.555556660  0.000000000
     0.777776756  0.888890050  0.000000000
     0.292102142  0.841770455  0.454092288
     0.317109351  0.933441019  0.440665368
     0.235507476  0.823747775  0.481780706

  ion indices of the primitive-cell ions
   primitive index   ion index
                 1           1
                 2           2
                 3           3
                 4           4
                 5           5
                 6           6
                 7           7
                 8           8
                 9           9
                10          10
                11          11
                12          12
                13          13
                14          14
                15          15
                16          16
                17          17
                18          18
                19          19
                20          20
                21          21
                22          22
                23          23
                24          24
                25          25
                26          26
                27          27
                28          28
                29          29
                30          30
                31          31
                32          32
                33          33
                34          34
                35          35
                36          36
                37          37
                38          38
                39          39
                40          40
                41          41
                42          42
                43          43
                44          44
                45          45
                46          46
                47          47
                48          48
                49          49
                50          50
                51          51
                52          52
                53          53
                54          54
                55          55
                56          56
                57          57
                58          58
                59          59
                60          60
                61          61
                62          62
                63          63
                64          64
                65          65
                66          66
                67          67
                68          68
                69          69
                70          70
                71          71
                72          72
                73          73
                74          74
                75          75
                76          76
                77          77
                78          78
                79          79
                80          80
                81          81
                82          82
                83          83
                84          84
                85          85
                86          86
                87          87
                88          88
                89          89
                90          90
                91          91
                92          92
                93          93
                94          94
                95          95
                96          96
                97          97
                98          98
                99          99
               100         100
               101         101
               102         102
               103         103
               104         104
               105         105
               106         106
               107         107
               108         108
               109         109
               110         110

----------------------------------------------------------------------------------------

 
 
 KPOINTS: KPOINTS created by Atomic Simulation Env

Automatic generation of k-mesh.
 Grid dimensions read from file:
 generate k-points for:    2    2    1

 Generating k-lattice:

  Cartesian coordinates                     Fractional coordinates (reciprocal lattice)
     0.042964185  0.024805384  0.000000000     0.500000000 -0.000000000  0.000000000
     0.000000000  0.049610764  0.000000000     0.000000000  0.500000000  0.000000000
     0.000000000  0.000000000  0.035605309     0.000000000  0.000000000  1.000000000

  Length of vectors
     0.049610768  0.049610764  0.035605309

  Shift w.r.t. Gamma in fractional coordinates (k-lattice)
     0.000000000  0.000000000  0.000000000

 
 Subroutine IBZKPT returns following result:
 ===========================================
 
 Found      4 irreducible k-points:
 
 Following reciprocal coordinates:
            Coordinates               Weight
  0.000000  0.000000  0.000000      1.000000
  0.500000 -0.000000  0.000000      1.000000
  0.000000  0.500000  0.000000      1.000000
  0.500000  0.500000  0.000000      1.000000
 
 Following cartesian coordinates:
            Coordinates               Weight
  0.000000  0.000000  0.000000      1.000000
  0.042964  0.024805  0.000000      1.000000
  0.000000  0.049611  0.000000      1.000000
  0.042964  0.074416  0.000000      1.000000
 


--------------------------------------------------------------------------------------------------------




 Dimension of arrays:
   k-points           NKPTS =      4   k-points in BZ     NKDIM =      4   number of bands    NBANDS=    520
   number of dos      NEDOS =   1001   number of ions     NIONS =    110
   non local maximal  LDIM  =      8   non local SUM 2l+1 LMDIM =     32
   total plane-waves  NPLWV = ******
   max r-space proj   IRMAX =      1   max aug-charges    IRDMAX= 130004
   dimension x,y,z NGX =    80 NGY =   80 NGZ =  192
   dimension x,y,z NGXF=   160 NGYF=  160 NGZF=  384
   support grid    NGXF=   320 NGYF=  320 NGZF=  768
   ions per type =              36  72   2
   NGX,Y,Z   is equivalent  to a cutoff of  11.43, 11.43, 11.36 a.u.
   NGXF,Y,Z  is equivalent  to a cutoff of  22.86, 22.86, 22.73 a.u.

 SYSTEM =  unknown system                          
 POSCAR =  Ce  O  H                                

 Startparameter for this run:
   NWRITE =      2    write-flag & timer
   PREC   = accura    normal or accurate (medium, high low for compatibility)
   ISTART =      1    job   : 0-new  1-cont  2-samecut
   ICHARG =      2    charge: 1-file 2-atom 10-const
   ISPIN  =      2    spin polarized calculation?
   LNONCOLLINEAR =      F non collinear calculations
   LSORBIT =      F    spin-orbit coupling
   INIWAV =      1    electr: 0-lowe 1-rand  2-diag
   LASPH  =      T    aspherical Exc in radial PAW
 Electronic Relaxation 1
   ENCUT  =  415.0 eV  30.50 Ry    5.52 a.u.  19.33 19.33 46.65*2*pi/ulx,y,z
   ENINI  =  415.0     initial cutoff
   ENAUG  =  659.4 eV  augmentation charge cutoff
   NELM   =    500;   NELMIN=  2; NELMDL=-12     # of ELM steps 
   EDIFF  = 0.1E-05   stopping-criterion for ELM
   LREAL  =      F    real-space projection
   NLSPLINE    = F    spline interpolate recip. space projectors
   LCOMPAT=      F    compatible to vasp.4.4
   GGA_COMPAT  = T    GGA compatible to vasp.4.4-vasp.4.6
   LMAXPAW     = -100 max onsite density
   LMAXMIX     =    2 max onsite mixed and CHGCAR
   VOSKOWN=      0    Vosko Wilk Nusair interpolation
   ROPT   =    0.00000   0.00000   0.00000
 Ionic relaxation
   EDIFFG = 0.1E-04   stopping-criterion for IOM
   NSW    =      0    number of steps for IOM
   NBLOCK =      1;   KBLOCK =      1    inner block; outer block 
   IBRION =     -1    ionic relax: 0-MD 1-quasi-New 2-CG
   NFREE  =      0    steps in history (QN), initial steepest desc. (CG)
   ISIF   =      2    stress and relaxation
   IWAVPR =     10    prediction:  0-non 1-charg 2-wave 3-comb
   ISYM   =      2    0-nonsym 1-usesym 2-fastsym
   LCORR  =      T    Harris-Foulkes like correction to forces

   POTIM  = 0.5000    time-step for ionic-motion
   TEIN   =    0.0    initial temperature
   TEBEG  =    0.0;   TEEND  =   0.0 temperature during run
   SMASS  =  -3.00    Nose mass-parameter (am)
   estimated Nose-frequenzy (Omega)   =  0.10E-29 period in steps = 0.13E+47 mass=  -0.310E-26a.u.
   SCALEE = 1.0000    scale energy and forces
   NPACO  =    256;   APACO  = 10.0  distance and # of slots for P.C.
   PSTRESS=    0.0 pullay stress

  Mass of Ions in am
   POMASS = 140.12 16.00  1.00
  Ionic Valenz
   ZVAL   =  12.00  6.00  1.00
  Atomic Wigner-Seitz radii
   RWIGS  =  -1.00 -1.00 -1.00
  virtual crystal weights 
   VCA    =   1.00  1.00  1.00
   NELECT =     866.0000    total number of electrons
   NUPDOWN=       2.0000    fix difference up-down

 DOS related values:
   EMIN   =  10.00;   EMAX   =-10.00  energy-range for DOS
   EFERMI =   0.00
   ISMEAR =     0;   SIGMA  =   0.05  broadening in eV -4-tet -1-fermi 0-gaus

 Electronic relaxation 2 (details)
   IALGO  =     58    algorithm
   LDIAG  =      T    sub-space diagonalisation (order eigenvalues)
   LSUBROT=      F    optimize rotation matrix (better conditioning)
   TURBO    =      0    0=normal 1=particle mesh
   IRESTART =      0    0=no restart 2=restart with 2 vectors
   NREBOOT  =      0    no. of reboots
   NMIN     =      0    reboot dimension
   EREF     =   0.00    reference energy to select bands
   IMIX   =      4    mixing-type and parameters
     AMIX     =   0.40;   BMIX     =  1.00
     AMIX_MAG =   1.60;   BMIX_MAG =  1.00
     AMIN     =   0.10
     WC   =   100.;   INIMIX=   1;  MIXPRE=   1;  MAXMIX= -45

 Intra band minimization:
   WEIMIN = 0.0000     energy-eigenvalue tresh-hold
   EBREAK =  0.48E-09  absolut break condition
   DEPER  =   0.30     relativ break condition  

   TIME   =   0.40     timestep for ELM

  volume/ion in A,a.u.               =      29.95       202.09
  Fermi-wavevector in a.u.,A,eV,Ry     =   1.048737  1.981825 14.964355  1.099849
  Thomas-Fermi vector in A             =   2.183671
 
 Write flags
   LWAVE        =      T    write WAVECAR
   LDOWNSAMPLE  =      F    k-point downsampling of WAVECAR
   LCHARG       =      T    write CHGCAR
   LVTOT        =      F    write LOCPOT, total local potential
   LVHAR        =      F    write LOCPOT, Hartree potential only
   LELF         =      F    write electronic localiz. function (ELF)
   LORBIT       =     11    0 simple, 1 ext, 2 COOP (PROOUT), +10 PAW based schemes


 Dipole corrections
   LMONO  =      F    monopole corrections only (constant potential shift)
   LDIPOL =      T    correct potential (dipole corrections)
   IDIPOL =      3    1-x, 2-y, 3-z, 4-all directions 
   EPSILON=  1.0000000 bulk dielectric constant

 LDA+U is selected, type is set to LDAUTYPE =  2
   angular momentum for each species LDAUL =     3   -1   -1
   U (eV)           for each species LDAUU =   4.5  0.0  0.0
   J (eV)           for each species LDAUJ =   0.0  0.0  0.0
 Exchange correlation treatment:
   GGA     =    --    GGA type
   LEXCH   =     8    internal setting for exchange type
   LIBXC   =     F    Libxc                    
   VOSKOWN =     0    Vosko Wilk Nusair interpolation
   LHFCALC =     F    Hartree Fock is set to
   LHFONE  =     F    Hartree Fock one center treatment
   AEXX    =    0.0000 exact exchange contribution

 Linear response parameters
   LEPSILON=     F    determine dielectric tensor
   LRPA    =     F    only Hartree local field effects (RPA)
   LNABLA  =     F    use nabla operator in PAW spheres
   LVEL    =     F    velocity operator in full k-point grid
   CSHIFT  =0.1000    complex shift for real part using Kramers Kronig
   OMEGAMAX=  -1.0    maximum frequency
   DEG_THRESHOLD= 0.2000000E-02 threshold for treating states as degnerate
   RTIME   =   -0.100 relaxation time in fs
  (WPLASMAI=    0.000 imaginary part of plasma frequency in eV, 0.658/RTIME)
   DFIELD  = 0.0000000 0.0000000 0.0000000 field for delta impulse in time
 
  Optional k-point grid parameters
   LKPOINTS_OPT  =     F    use optional k-point grid
   KPOINTS_OPT_MODE=     1    mode for optional k-point grid
 
 Orbital magnetization related:
   ORBITALMAG=     F  switch on orbital magnetization
   LCHIMAG   =     F  perturbation theory with respect to B field
   DQ        =  0.001000  dq finite difference perturbation B field
   LLRAUG    =     F  two centre corrections for induced B field



--------------------------------------------------------------------------------------------------------


 Static calculation
 charge density and potential will be updated during run
 spin polarized calculation
 Conjugate gradient for all bands (Freysoldt, et al. PRB 79, 241103 (2009))
 preconditioned conjugated gradient                                        
 perform sub-space diagonalisation
    before iterative eigenvector-optimisation
 modified Broyden-mixing scheme, WC =      100.0
 initial mixing is a Kerker type mixing with AMIX =  0.4000 and BMIX =      1.0000
 Hartree-type preconditioning will be used
 using additional bands           87
 reciprocal scheme for non local part
 use partial core corrections
 no Harris-corrections to forces 
 use gradient corrections 
 use of overlap-Matrix (Vanderbilt PP)
 Gauss-broadening in eV      SIGMA  =   0.05


--------------------------------------------------------------------------------------------------------


  energy-cutoff  :      415.00
  volume of cell :     3294.15
      direct lattice vectors                 reciprocal lattice vectors
    11.637599945  0.000000000  0.000000000     0.085928371  0.049610768  0.000000000
    -5.818800449 10.078458017  0.000000000     0.000000000  0.099221528  0.000000000
     0.000000000  0.000000000 28.085699081     0.000000000  0.000000000  0.035605309

  length of vectors
    11.637599945 11.637600899 28.085699081     0.099221536  0.099221528  0.035605309


 
 old parameters found on file WAVECAR:
  energy-cutoff  :      415.00
  volume of cell :     3294.15
      direct lattice vectors                 reciprocal lattice vectors
    11.637599945  0.000000000  0.000000000     0.085928371  0.049610768  0.000000000
    -5.818800449 10.078458017  0.000000000     0.000000000  0.099221528  0.000000000
     0.000000000  0.000000000 28.085699081     0.000000000  0.000000000  0.035605309

  length of vectors

 
 k-points in units of 2pi/SCALE and weight: KPOINTS created by Atomic Simulation Env
   0.00000000  0.00000000  0.00000000       0.250
   0.04296419  0.02480538  0.00000000       0.250
   0.00000000  0.04961076  0.00000000       0.250
   0.04296419  0.07441615  0.00000000       0.250
 
 k-points in reciprocal lattice and weights: KPOINTS created by Atomic Simulation Env
   0.00000000  0.00000000  0.00000000       0.250
   0.50000000 -0.00000000  0.00000000       0.250
   0.00000000  0.50000000  0.00000000       0.250
   0.50000000  0.50000000  0.00000000       0.250
 
 position of ions in fractional coordinates (direct lattice) 
   0.21737381  0.76712472  0.36610165
   0.88979196  0.77583958  0.36476074
   0.22162471  0.11021704  0.36258011
   0.20657049  0.43194371  0.36415829
   0.55660456  0.11344259  0.36380540
   0.56094930  0.43521352  0.36451960
   0.56342892  0.79337332  0.36519054
   0.89017183  0.11074941  0.36378043
   0.88785711  0.44300679  0.36353572
   0.11161314  0.22114232  0.25097903
   0.11174511  0.55568964  0.25173388
   0.11144182  0.88704414  0.25264725
   0.44342931  0.22154633  0.25119666
   0.44434954  0.55577993  0.24619992
   0.44265457  0.88751199  0.25271078
   0.77753159  0.22150498  0.25236721
   0.77793720  0.55627981  0.25195865
   0.77866703  0.88814929  0.25228464
   0.99978201  0.99942054  0.13971880
   0.00017939  0.33322524  0.13954276
   0.99987347  0.66627605  0.13979603
   0.33336237  0.99935376  0.13972591
   0.33244308  0.33118393  0.13848245
   0.33253746  0.66757154  0.13873924
   0.66620457  0.99917349  0.13987665
   0.66642980  0.33331466  0.13959414
   0.66866305  0.66759502  0.13877575
   0.22222334  0.11111000  0.02819369
   0.22222334  0.44444332  0.02819369
   0.22222332  0.77777671  0.02819369
   0.55555665  0.11111000  0.02819369
   0.55555663  0.44444332  0.02819369
   0.55555661  0.77777671  0.02819369
   0.88888998  0.11111000  0.02819369
   0.88888998  0.44444332  0.02819369
   0.88888999  0.77777671  0.02819369
   0.00968432  0.01465639  0.39246986
   0.99772137  0.32685868  0.39372150
   0.98758843  0.64447309  0.39348689
   0.34620355  0.03129795  0.39700244
   0.34102872  0.34742173  0.38374649
   0.35125074  0.64246439  0.38080928
   0.66995788  0.00433157  0.39408575
   0.66446104  0.32935844  0.39366903
   0.63255953  0.64796352  0.38367465
   0.10659583  0.22109208  0.33295939
   0.10428678  0.54313485  0.33391351
   0.11747993  0.89236174  0.33532873
   0.44995295  0.22258623  0.33251813
   0.44904041  0.89660488  0.33647600
   0.77751700  0.22159654  0.33479313
   0.77231123  0.54413579  0.33343501
   0.77757448  0.89522962  0.33501399
   0.22312175  0.11282357  0.27972722
   0.24085613  0.45120506  0.28304061
   0.22290061  0.77362791  0.27803149
   0.55726693  0.11094860  0.27884865
   0.54348411  0.45346236  0.28368837
   0.54607722  0.76081279  0.28417473
   0.88820045  0.11142840  0.27876517
   0.88786550  0.44214158  0.27825938
   0.88774898  0.77634507  0.27917153
   0.00035814  0.99984326  0.22400687
   0.00731758  0.33601664  0.22438539
   0.99904595  0.66527621  0.22385009
   0.33358675  0.00015386  0.22427924
   0.33300325  0.33202413  0.22128086
   0.33422922  0.66585763  0.22174466
   0.66273521  0.99163728  0.22495011
   0.66204967  0.33670986  0.22470381
   0.66648400  0.66700234  0.22211746
   0.10990997  0.22061015  0.16666236
   0.11037798  0.55543459  0.16694785
   0.11126210  0.88823071  0.16762110
   0.44438880  0.22052448  0.16668431
   0.44477607  0.55524977  0.16553460
   0.44401720  0.88951827  0.16743160
   0.77734542  0.22181459  0.16917794
   0.77831943  0.55544054  0.16697617
   0.77897300  0.88958006  0.16722632
   0.22190007  0.11023228  0.11073983
   0.22137665  0.44388627  0.11074365
   0.22216259  0.77777823  0.11074406
   0.55687751  0.11129851  0.11101098
   0.55602203  0.44383244  0.11070237
   0.55602996  0.77869622  0.11086181
   0.88788479  0.11144591  0.11104499
   0.88809960  0.44287190  0.11104622
   0.88926167  0.77783389  0.11078608
   0.00000000  0.00000000  0.05638738
   1.00000000  0.33333334  0.05638738
   1.00000000  0.66666669  0.05638738
   0.33333333  0.00000000  0.05638738
   0.33333333  0.33333334  0.05638738
   0.33333333  0.66666669  0.05638738
   0.66666667  0.00000000  0.05638738
   0.66666669  0.33333334  0.05638738
   0.66666666  0.66666669  0.05638738
   0.11111000  0.22222334  0.00000000
   0.11111000  0.55555666  0.00000000
   0.11111001  0.88889005  0.00000000
   0.44444337  0.22222334  0.00000000
   0.44444336  0.55555666  0.00000000
   0.44444338  0.88889005  0.00000000
   0.77777675  0.22222334  0.00000000
   0.77777671  0.55555666  0.00000000
   0.77777676  0.88889005  0.00000000
   0.29210214  0.84177045  0.45409229
   0.31710935  0.93344102  0.44066537
   0.23550748  0.82374777  0.48178071
 
 position of ions in cartesian coordinates  (Angst):
  -1.93403618  7.73143425 10.28222084
   5.84058713  7.81926663 10.24456050
   1.93784873  1.11081779 10.18331578
  -0.10940952  4.35332659 10.22764027
   5.81744142  1.14332642 10.21772897
   3.99568290  4.38628121 10.23778790
   1.94047937  7.99597968 10.25663155
   9.71503489  1.11618325 10.21702763
   7.75475772  4.46482531 10.21015473
   0.01212607  2.22877363  7.04892154
  -1.93300226  5.60049471  7.07012209
  -3.86461749  8.94003713  7.09577458
   3.87131903  2.23284535  7.05503377
   1.93718972  5.60140464  6.91469675
  -0.01281836  8.94475230  7.09755903
   7.75970829  2.23242864  7.08790962
   5.81644073  5.60644272  7.07643486
   3.89385191  8.95117538  7.08559058
   5.81963435 10.07261795  3.92410023
  -1.93688348  3.35839659  3.91915605
   7.75920008  6.71503521  3.92626926
  -1.93550218 10.07194493  3.92429973
   1.94174640  3.33782334  3.88937639
  -0.01452768  6.72809172  3.89658868
   1.93903112 10.07012811  3.92853355
   5.81615189  3.35929776  3.92059912
   3.89703090  6.72832841  3.89761406
   1.93961942  1.11981749  0.79183948
   0.00001932  4.47930336  0.79183948
  -1.93958140  7.83878994  0.79183948
   5.81881905  1.11981749  0.79183948
   3.87921882  4.47930336  0.79183948
   1.93961812  7.83878994  0.79183948
   9.69801903  1.11981749  0.79183948
   7.75841904  4.47930336  0.79183948
   5.81881857  7.83878994  0.79183948
   0.02741968  0.14771382 11.02279030
   9.70915672  3.29423146 11.05794356
   7.74309881  6.49529494 11.05135426
   3.84686191  0.31543512 11.15009116
   1.94717816  3.50147529 10.77778835
   0.34934358  6.47505035 10.69529484
   7.77149730  0.04365554 11.06817376
   5.81626077  3.31942521 11.05646989
   3.59110435  6.53047314 10.77577068
  -0.04597101  2.22826722  9.35139716
  -1.94674549  5.47396176  9.37819444
  -3.82529046  8.99363033  9.41794175
   3.94118760  2.24332594  9.33900409
   0.00858773  9.03639463  9.45016355
   7.75900575  2.23335142  9.40289917
   5.82163158  5.48404975  9.36475533
   3.83993821  9.02253411  9.40910206
   1.94010379  1.13708759  7.85633439
   0.17751510  4.54745129  7.94939327
  -1.90755837  7.79697646  7.80870871
   5.83966185  1.11819078  7.83165920
   3.68624360  4.57020138  7.96758615
   1.92801048  7.66781974  7.98124600
   9.68814188  1.12302644  7.82931476
   7.75988985  4.45610536  7.81510917
   5.81387044  7.82436117  7.84072759
  -5.81372051 10.07687829  6.29138956
  -1.87005477  3.38652960  6.30202046
   7.75538760  6.70495838  6.28698624
   3.88125386  0.00155065  6.29903930
   1.94337643  3.34629121  6.21482768
   0.01513324  6.71081816  6.22785381
   1.94250779  9.99417466  6.31788115
   5.74542169  3.39351619  6.31096349
   3.87512058  6.72235509  6.23832422
  -0.00459813  2.22341012  4.68082887
  -1.94742827  5.59792420  4.68884698
  -3.87361342  8.95199590  4.70775570
   3.88843111  2.22254676  4.68144525
   1.94523837  5.59606154  4.64915488
  -0.00863475  8.96497253  4.70243343
   7.75574021  2.23554904  4.75148073
   5.82577247  5.59798417  4.68964239
   3.88908730  8.96559525  4.69666815
   1.94096459  1.11097144  3.11020560
  -0.00659274  4.47368914  3.11031282
  -1.94029689  7.83880520  3.11032434
   5.83309381  1.12171736  3.11782111
   3.88818961  4.47314658  3.10915344
   1.93977631  7.84805713  3.11363145
   9.68436645  1.12320297  3.11877611
   7.75836465  4.46346587  3.11881082
   5.82281140  7.83936616  3.11150451
   0.00000000  0.00000000  1.58367896
   9.69799972  3.35948610  1.58367896
   7.75839949  6.71897221  1.58367896
   3.87919998  0.00000000  1.58367896
   1.93959975  3.35948610  1.58367896
  -0.00000048  6.71897221  1.58367896
   7.75839997  0.00000000  1.58367896
   5.81879997  3.35948610  1.58367896
   3.87919951  6.71897221  1.58367896
  -0.00001955  2.23966860  0.00000000
  -1.93961966  5.59915447  0.00000000
  -3.87922001  8.95864105  0.00000000
   3.87918091  2.23966860  0.00000000
   1.93958068  5.59915447  0.00000000
  -0.00001954  8.95864105  0.00000000
   7.75838137  2.23966860  0.00000000
   5.81878090  5.59915447  0.00000000
   3.87918091  8.95864105  0.00000000
  -1.49872643  8.48374819 12.75349935
  -1.74111526  9.40764612 12.37639492
  -2.05248213  8.30210736 13.53114794
 


--------------------------------------------------------------------------------------------------------


 k-point   1 :   0.0000 0.0000 0.0000  plane waves:   63423
 k-point   2 :   0.5000-0.0000 0.0000  plane waves:   63230
 k-point   3 :   0.0000 0.5000 0.0000  plane waves:   63230
 k-point   4 :   0.5000 0.5000 0.0000  plane waves:   63230

 maximum and minimum number of plane-waves per node :      7952     7872

 maximum number of plane-waves:     63423
 maximum index in each direction: 
   IXMAX=   19   IYMAX=   19   IZMAX=   46
   IXMIN=  -19   IYMIN=  -19   IZMIN=  -46


 parallel 3D FFT for wavefunctions:
    minimum data exchange during FFTs selected (reduces bandwidth)
 parallel 3D FFT for charge:
    minimum data exchange during FFTs selected (reduces bandwidth)


 total amount of memory used by VASP MPI-rank0   329730. kBytes
=======================================================================

   base      :      30000. kBytes
   nonl-proj :      38346. kBytes
   fftplans  :      27535. kBytes
   grid      :      28602. kBytes
   one-center:       1376. kBytes
   wavefun   :     203871. kBytes
 
     INWAV:  cpu time      7.3052: real time      7.3337
 Broyden mixing: mesh for mixing (old mesh)
   NGX = 39   NGY = 39   NGZ = 93
  (NGX  =160   NGY  =160   NGZ  =384)
  gives a total of 141453 points

 initial charge density was supplied:
 charge density of overlapping atoms calculated
 number of electron     866.0000000 magnetization       2.0000000
 keeping initial charge density in first step


--------------------------------------------------------------------------------------------------------


 Maximum index for augmentation-charges         2764 (set IRDMAX)


--------------------------------------------------------------------------------------------------------


 First call to EWALD:  gamma=   0.119
 Maximum number of real-space cells 4x 4x 2
 Maximum number of reciprocal cells 2x 2x 5

    FEWALD:  cpu time      0.0042: real time      0.0042


--------------------------------------- Iteration      1(   1)  ---------------------------------------


    POTLOK:  cpu time      0.2317: real time      0.2332
    SETDIJ:  cpu time      1.1468: real time      1.1530
    TRIAL :  cpu time    111.4809: real time    112.3626
    CORREC:  cpu time      0.0013: real time      0.0015
    --------------------------------------------
      LOOP:  cpu time    112.9104: real time    113.8218

 eigenvalue-minimisations  : 12960
 total energy-change (2. order) :-0.1116207E+04  (-0.1662931E+03)
 number of electron     866.0000000 magnetization       2.0000000
 augmentation part      866.0000000 magnetization       2.0000000

 DIPCOR: dipole corrections for dipol
 direction  3 min pos   269,
 dipolmoment           0.000000      0.000000     -0.000064 electrons x Angstroem
 Tr[quadrupol]    -19092.809693

 energy correction for charged system         0.000000 eV
 dipol+quadrupol energy correction           -0.000000 eV
 added-field ion interaction         -0.000077 eV  (added to PSCEN)


 Free energy of the ion-electron system (eV)
  ---------------------------------------------------
  alpha Z        PSCENC =      2111.30034433
  Ewald energy   TEWEN  =    356942.34378772
  -Hartree energ DENC   =   -419819.65704255
  -exchange      EXHF   =         0.00000000
  -V(xc)+E(xc)   XCENC  =      2196.09266545
  PAW double counting   =     55507.18699512   -54839.19034423
  entropy T*S    EENTRO =        -0.02367603
  eigenvalues    EBANDS =    -12634.24367965
  atomic energy  EATOM  =     69419.98428778
  ---------------------------------------------------
  free energy    TOTEN  =     -1116.20666205 eV

  energy without entropy =    -1116.18298603  energy(sigma->0) =    -1116.19482404


--------------------------------------------------------------------------------------------------------




--------------------------------------- Iteration      1(   2)  ---------------------------------------


    TRIAL :  cpu time    114.6142: real time    115.5810
    CORREC:  cpu time      0.0011: real time      0.0011
    --------------------------------------------
      LOOP:  cpu time    114.6234: real time    115.5938

 eigenvalue-minimisations  : 13376
 total energy-change (2. order) :-0.1221866E+02  (-0.1210618E+02)
 number of electron     866.0000000 magnetization       2.0000000
 augmentation part      866.0000000 magnetization       2.0000000

 DIPCOR: dipole corrections for dipol
 direction  3 min pos   269,
 dipolmoment           0.000000      0.000000     -0.000064 electrons x Angstroem
 Tr[quadrupol]    -19092.809693

 energy correction for charged system         0.000000 eV
 dipol+quadrupol energy correction           -0.000000 eV
 added-field ion interaction         -0.000077 eV  (added to PSCEN)


 Free energy of the ion-electron system (eV)
  ---------------------------------------------------
  alpha Z        PSCENC =      2111.30034433
  Ewald energy   TEWEN  =    356942.34378772
  -Hartree energ DENC   =   -419819.65704255
  -exchange      EXHF   =         0.00000000
  -V(xc)+E(xc)   XCENC  =      2196.09266545
  PAW double counting   =     55507.18699512   -54839.19034423
  entropy T*S    EENTRO =        -0.03283895
  eigenvalues    EBANDS =    -12646.45318099
  atomic energy  EATOM  =     69419.98428778
  ---------------------------------------------------
  free energy    TOTEN  =     -1128.42532631 eV

  energy without entropy =    -1128.39248736  energy(sigma->0) =    -1128.40890684


--------------------------------------------------------------------------------------------------------




--------------------------------------- Iteration      1(   3)  ---------------------------------------


    TRIAL :  cpu time    116.6601: real time    117.5308
    CORREC:  cpu time      0.0011: real time      0.0013
    --------------------------------------------
      LOOP:  cpu time    116.6621: real time    117.5370

 eigenvalue-minimisations  : 13560
 total energy-change (2. order) :-0.5172446E+00  (-0.5109063E+00)
 number of electron     866.0000000 magnetization       2.0000000
 augmentation part      866.0000000 magnetization       2.0000000

 DIPCOR: dipole corrections for dipol
 direction  3 min pos   269,
 dipolmoment           0.000000      0.000000     -0.000064 electrons x Angstroem
 Tr[quadrupol]    -19092.809693

 energy correction for charged system         0.000000 eV
 dipol+quadrupol energy correction           -0.000000 eV
 added-field ion interaction         -0.000077 eV  (added to PSCEN)


 Free energy of the ion-electron system (eV)
  ---------------------------------------------------
  alpha Z        PSCENC =      2111.30034433
  Ewald energy   TEWEN  =    356942.34378772
  -Hartree energ DENC   =   -419819.65704255
  -exchange      EXHF   =         0.00000000
  -V(xc)+E(xc)   XCENC  =      2196.09266545
  PAW double counting   =     55507.18699512   -54839.19034423
  entropy T*S    EENTRO =        -0.03589965
  eigenvalues    EBANDS =    -12646.96736488
  atomic energy  EATOM  =     69419.98428778
  ---------------------------------------------------
  free energy    TOTEN  =     -1128.94257090 eV

  energy without entropy =    -1128.90667125  energy(sigma->0) =    -1128.92462108


--------------------------------------------------------------------------------------------------------




--------------------------------------- Iteration      1(   4)  ---------------------------------------


    TRIAL :  cpu time    120.2674: real time    121.1644
    CORREC:  cpu time      0.0010: real time      0.0012
    --------------------------------------------
      LOOP:  cpu time    120.2693: real time    121.1706

 eigenvalue-minimisations  : 14008
 total energy-change (2. order) :-0.4279091E-01  (-0.4249535E-01)
 number of electron     866.0000000 magnetization       2.0000000
 augmentation part      866.0000000 magnetization       2.0000000

 DIPCOR: dipole corrections for dipol
 direction  3 min pos   269,
 dipolmoment           0.000000      0.000000     -0.000064 electrons x Angstroem
 Tr[quadrupol]    -19092.809693

 energy correction for charged system         0.000000 eV
 dipol+quadrupol energy correction           -0.000000 eV
 added-field ion interaction         -0.000077 eV  (added to PSCEN)


 Free energy of the ion-electron system (eV)
  ---------------------------------------------------
  alpha Z        PSCENC =      2111.30034433
  Ewald energy   TEWEN  =    356942.34378772
  -Hartree energ DENC   =   -419819.65704255
  -exchange      EXHF   =         0.00000000
  -V(xc)+E(xc)   XCENC  =      2196.09266545
  PAW double counting   =     55507.18699512   -54839.19034423
  entropy T*S    EENTRO =        -0.03689909
  eigenvalues    EBANDS =    -12647.00915635
  atomic energy  EATOM  =     69419.98428778
  ---------------------------------------------------
  free energy    TOTEN  =     -1128.98536181 eV

  energy without entropy =    -1128.94846272  energy(sigma->0) =    -1128.96691227


--------------------------------------------------------------------------------------------------------




--------------------------------------- Iteration      1(   5)  ---------------------------------------


    TRIAL :  cpu time    118.2482: real time    119.1746
    CORREC:  cpu time      0.0010: real time      0.0012
    --------------------------------------------
      LOOP:  cpu time    118.2501: real time    119.1807

 eigenvalue-minimisations  : 13728
 total energy-change (2. order) :-0.4294461E-02  (-0.4283203E-02)
 number of electron     866.0000000 magnetization       2.0000000
 augmentation part      866.0000000 magnetization       2.0000000

 DIPCOR: dipole corrections for dipol
 direction  3 min pos   269,
 dipolmoment           0.000000      0.000000     -0.000064 electrons x Angstroem
 Tr[quadrupol]    -19092.809693

 energy correction for charged system         0.000000 eV
 dipol+quadrupol energy correction           -0.000000 eV
 added-field ion interaction         -0.000077 eV  (added to PSCEN)


 Free energy of the ion-electron system (eV)
  ---------------------------------------------------
  alpha Z        PSCENC =      2111.30034433
  Ewald energy   TEWEN  =    356942.34378772
  -Hartree energ DENC   =   -419819.65704255
  -exchange      EXHF   =         0.00000000
  -V(xc)+E(xc)   XCENC  =      2196.09266545
  PAW double counting   =     55507.18699512   -54839.19034423
  entropy T*S    EENTRO =        -0.03703777
  eigenvalues    EBANDS =    -12647.01331213
  atomic energy  EATOM  =     69419.98428778
  ---------------------------------------------------
  free energy    TOTEN  =     -1128.98965628 eV

  energy without entropy =    -1128.95261850  energy(sigma->0) =    -1128.97113739


--------------------------------------------------------------------------------------------------------




--------------------------------------- Iteration      1(   6)  ---------------------------------------


    TRIAL :  cpu time    120.0013: real time    120.9005
    CORREC:  cpu time      0.0011: real time      0.0012
    --------------------------------------------
      LOOP:  cpu time    120.0040: real time    120.9066

 eigenvalue-minimisations  : 13960
 total energy-change (2. order) :-0.5013973E-03  (-0.5006587E-03)
 number of electron     866.0000000 magnetization       2.0000000
 augmentation part      866.0000000 magnetization       2.0000000

 DIPCOR: dipole corrections for dipol
 direction  3 min pos   269,
 dipolmoment           0.000000      0.000000     -0.000064 electrons x Angstroem
 Tr[quadrupol]    -19092.809693

 energy correction for charged system         0.000000 eV
 dipol+quadrupol energy correction           -0.000000 eV
 added-field ion interaction         -0.000077 eV  (added to PSCEN)


 Free energy of the ion-electron system (eV)
  ---------------------------------------------------
  alpha Z        PSCENC =      2111.30034433
  Ewald energy   TEWEN  =    356942.34378772
  -Hartree energ DENC   =   -419819.65704255
  -exchange      EXHF   =         0.00000000
  -V(xc)+E(xc)   XCENC  =      2196.09266545
  PAW double counting   =     55507.18699512   -54839.19034423
  entropy T*S    EENTRO =        -0.03705864
  eigenvalues    EBANDS =    -12647.01379266
  atomic energy  EATOM  =     69419.98428778
  ---------------------------------------------------
  free energy    TOTEN  =     -1128.99015767 eV

  energy without entropy =    -1128.95309903  energy(sigma->0) =    -1128.97162835


--------------------------------------------------------------------------------------------------------




--------------------------------------- Iteration      1(   7)  ---------------------------------------


    TRIAL :  cpu time    119.4865: real time    120.4129
    CORREC:  cpu time      0.0011: real time      0.0013
    --------------------------------------------
      LOOP:  cpu time    119.4887: real time    120.4191

 eigenvalue-minimisations  : 13896
 total energy-change (2. order) :-0.6366894E-04  (-0.6360780E-04)
 number of electron     866.0000000 magnetization       2.0000000
 augmentation part      866.0000000 magnetization       2.0000000

 DIPCOR: dipole corrections for dipol
 direction  3 min pos   269,
 dipolmoment           0.000000      0.000000     -0.000064 electrons x Angstroem
 Tr[quadrupol]    -19092.809693

 energy correction for charged system         0.000000 eV
 dipol+quadrupol energy correction           -0.000000 eV
 added-field ion interaction         -0.000077 eV  (added to PSCEN)


 Free energy of the ion-electron system (eV)
  ---------------------------------------------------
  alpha Z        PSCENC =      2111.30034433
  Ewald energy   TEWEN  =    356942.34378772
  -Hartree energ DENC   =   -419819.65704255
  -exchange      EXHF   =         0.00000000
  -V(xc)+E(xc)   XCENC  =      2196.09266545
  PAW double counting   =     55507.18699512   -54839.19034423
  entropy T*S    EENTRO =        -0.03706178
  eigenvalues    EBANDS =    -12647.01385319
  atomic energy  EATOM  =     69419.98428778
  ---------------------------------------------------
  free energy    TOTEN  =     -1128.99022134 eV

  energy without entropy =    -1128.95315956  energy(sigma->0) =    -1128.97169045


--------------------------------------------------------------------------------------------------------




--------------------------------------- Iteration      1(   8)  ---------------------------------------


    TRIAL :  cpu time    104.5316: real time    105.3425
    CORREC:  cpu time      0.0011: real time      0.0012
    --------------------------------------------
      LOOP:  cpu time    104.5335: real time    105.3486

 eigenvalue-minimisations  : 11856
 total energy-change (2. order) :-0.8077710E-05  (-0.8071584E-05)
 number of electron     866.0000000 magnetization       2.0000000
 augmentation part      866.0000000 magnetization       2.0000000

 DIPCOR: dipole corrections for dipol
 direction  3 min pos   269,
 dipolmoment           0.000000      0.000000     -0.000064 electrons x Angstroem
 Tr[quadrupol]    -19092.809693

 energy correction for charged system         0.000000 eV
 dipol+quadrupol energy correction           -0.000000 eV
 added-field ion interaction         -0.000077 eV  (added to PSCEN)


 Free energy of the ion-electron system (eV)
  ---------------------------------------------------
  alpha Z        PSCENC =      2111.30034433
  Ewald energy   TEWEN  =    356942.34378772
  -Hartree energ DENC   =   -419819.65704255
  -exchange      EXHF   =         0.00000000
  -V(xc)+E(xc)   XCENC  =      2196.09266545
  PAW double counting   =     55507.18699512   -54839.19034423
  entropy T*S    EENTRO =        -0.03706226
  eigenvalues    EBANDS =    -12647.01386079
  atomic energy  EATOM  =     69419.98428778
  ---------------------------------------------------
  free energy    TOTEN  =     -1128.99022942 eV

  energy without entropy =    -1128.95316716  energy(sigma->0) =    -1128.97169829


--------------------------------------------------------------------------------------------------------




--------------------------------------- Iteration      1(   9)  ---------------------------------------


    TRIAL :  cpu time     74.5844: real time     75.1359
    CORREC:  cpu time      0.0011: real time      0.0013
    --------------------------------------------
      LOOP:  cpu time     74.5861: real time     75.1424

 eigenvalue-minimisations  :  7744
 total energy-change (2. order) :-0.1089298E-05  (-0.1089125E-05)
 number of electron     866.0000000 magnetization       2.0000000
 augmentation part      866.0000000 magnetization       2.0000000

 DIPCOR: dipole corrections for dipol
 direction  3 min pos   269,
 dipolmoment           0.000000      0.000000     -0.000064 electrons x Angstroem
 Tr[quadrupol]    -19092.809693

 energy correction for charged system         0.000000 eV
 dipol+quadrupol energy correction           -0.000000 eV
 added-field ion interaction         -0.000077 eV  (added to PSCEN)


 Free energy of the ion-electron system (eV)
  ---------------------------------------------------
  alpha Z        PSCENC =      2111.30034433
  Ewald energy   TEWEN  =    356942.34378772
  -Hartree energ DENC   =   -419819.65704255
  -exchange      EXHF   =         0.00000000
  -V(xc)+E(xc)   XCENC  =      2196.09266545
  PAW double counting   =     55507.18699512   -54839.19034423
  entropy T*S    EENTRO =        -0.03706233
  eigenvalues    EBANDS =    -12647.01386180
  atomic energy  EATOM  =     69419.98428778
  ---------------------------------------------------
  free energy    TOTEN  =     -1128.99023051 eV

  energy without entropy =    -1128.95316817  energy(sigma->0) =    -1128.97169934


--------------------------------------------------------------------------------------------------------




--------------------------------------- Iteration      1(  10)  ---------------------------------------


    TRIAL :  cpu time     64.6306: real time     65.1165
    CORREC:  cpu time      0.0011: real time      0.0013
    --------------------------------------------
      LOOP:  cpu time     64.6323: real time     65.1230

 eigenvalue-minimisations  :  6384
 total energy-change (2. order) :-0.1368462E-06  (-0.1367714E-06)
 number of electron     866.0000000 magnetization       2.0000000
 augmentation part      866.0000000 magnetization       2.0000000

 DIPCOR: dipole corrections for dipol
 direction  3 min pos   269,
 dipolmoment           0.000000      0.000000     -0.000064 electrons x Angstroem
 Tr[quadrupol]    -19092.809693

 energy correction for charged system         0.000000 eV
 dipol+quadrupol energy correction           -0.000000 eV
 added-field ion interaction         -0.000077 eV  (added to PSCEN)


 Free energy of the ion-electron system (eV)
  ---------------------------------------------------
  alpha Z        PSCENC =      2111.30034433
  Ewald energy   TEWEN  =    356942.34378772
  -Hartree energ DENC   =   -419819.65704255
  -exchange      EXHF   =         0.00000000
  -V(xc)+E(xc)   XCENC  =      2196.09266545
  PAW double counting   =     55507.18699512   -54839.19034423
  entropy T*S    EENTRO =        -0.03706234
  eigenvalues    EBANDS =    -12647.01386193
  atomic energy  EATOM  =     69419.98428778
  ---------------------------------------------------
  free energy    TOTEN  =     -1128.99023065 eV

  energy without entropy =    -1128.95316830  energy(sigma->0) =    -1128.97169947


--------------------------------------------------------------------------------------------------------




--------------------------------------- Iteration      1(  11)  ---------------------------------------


    TRIAL :  cpu time     63.6578: real time     64.1473
    CORREC:  cpu time      0.0009: real time      0.0011
    --------------------------------------------
      LOOP:  cpu time     63.6595: real time     64.1531

 eigenvalue-minimisations  :  6272
 total energy-change (2. order) :-0.4068715E-07  (-0.4072493E-07)
 number of electron     866.0000000 magnetization       2.0000000
 augmentation part      866.0000000 magnetization       2.0000000

 DIPCOR: dipole corrections for dipol
 direction  3 min pos   269,
 dipolmoment           0.000000      0.000000     -0.000064 electrons x Angstroem
 Tr[quadrupol]    -19092.809693

 energy correction for charged system         0.000000 eV
 dipol+quadrupol energy correction           -0.000000 eV
 added-field ion interaction         -0.000077 eV  (added to PSCEN)


 Free energy of the ion-electron system (eV)
  ---------------------------------------------------
  alpha Z        PSCENC =      2111.30034433
  Ewald energy   TEWEN  =    356942.34378772
  -Hartree energ DENC   =   -419819.65704255
  -exchange      EXHF   =         0.00000000
  -V(xc)+E(xc)   XCENC  =      2196.09266545
  PAW double counting   =     55507.18699512   -54839.19034423
  entropy T*S    EENTRO =        -0.03706235
  eigenvalues    EBANDS =    -12647.01386197
  atomic energy  EATOM  =     69419.98428778
  ---------------------------------------------------
  free energy    TOTEN  =     -1128.99023069 eV

  energy without entropy =    -1128.95316834  energy(sigma->0) =    -1128.97169951


--------------------------------------------------------------------------------------------------------




--------------------------------------- Iteration      1(  12)  ---------------------------------------


    TRIAL :  cpu time     63.5267: real time     64.0628
    CORREC:  cpu time      0.0010: real time      0.0012
    CHARGE:  cpu time      1.7802: real time      1.7980
    --------------------------------------------
      LOOP:  cpu time     65.3097: real time     65.8669

 eigenvalue-minimisations  :  6264
 total energy-change (2. order) :-0.2206070E-07  (-0.2202518E-07)
 number of electron     865.9999999 magnetization       2.0000000
 augmentation part        3.6777256 magnetization       0.2356282

 DIPCOR: dipole corrections for dipol
 direction  3 min pos   269,
 dipolmoment           0.000000      0.000000     -0.000064 electrons x Angstroem
 Tr[quadrupol]    -19092.809693

 energy correction for charged system         0.000000 eV
 dipol+quadrupol energy correction           -0.000000 eV
 added-field ion interaction         -0.000077 eV  (added to PSCEN)


 Free energy of the ion-electron system (eV)
  ---------------------------------------------------
  alpha Z        PSCENC =      2111.30034433
  Ewald energy   TEWEN  =    356942.34378772
  -Hartree energ DENC   =   -419819.65704255
  -exchange      EXHF   =         0.00000000
  -V(xc)+E(xc)   XCENC  =      2196.09266545
  PAW double counting   =     55507.18699512   -54839.19034423
  entropy T*S    EENTRO =        -0.03706235
  eigenvalues    EBANDS =    -12647.01386199
  atomic energy  EATOM  =     69419.98428778
  ---------------------------------------------------
  free energy    TOTEN  =     -1128.99023071 eV

  energy without entropy =    -1128.95316836  energy(sigma->0) =    -1128.97169953


--------------------------------------------------------------------------------------------------------




--------------------------------------- Iteration      1(  13)  ---------------------------------------


    POTLOK:  cpu time      0.2186: real time      0.2202
    SETDIJ:  cpu time      1.1884: real time      1.1925
    TRIAL :  cpu time     36.5188: real time     36.7889
    CORREC:  cpu time      7.1284: real time      7.1808
    CHARGE:  cpu time      1.7502: real time      1.7665
    --------------------------------------------
      LOOP:  cpu time     46.8148: real time     47.1730

 eigenvalue-minimisations  :     0
 total energy-change (2. order) : 0.8272099E+03  (-0.4693913E+03)
 number of electron     865.9999999 magnetization       2.0000000
 augmentation part       -1.8783953 magnetization       1.4323348

 DIPCOR: dipole corrections for dipol
 direction  3 min pos   270,
 dipolmoment           0.000000      0.000000      6.266029 electrons x Angstroem
 Tr[quadrupol]    -19102.039025

 energy correction for charged system         0.000000 eV
 dipol+quadrupol energy correction           -1.078413 eV
 added-field ion interaction         29.317275 eV  (added to PSCEN)


[...]
      5.81882      7.83879      0.79184         0.069946      0.037216     -0.183876
      0.02742      0.14771     11.02279        -0.000227      0.000477      0.016212
      9.70916      3.29423     11.05794        -0.001733      0.002737      0.016004
      7.74310      6.49529     11.05135        -0.000849      0.004323      0.017474
      3.84686      0.31544     11.15009         0.001981     -0.005691      0.024307
      1.94718      3.50148     10.77779        -0.001011      0.001727      0.013422
      0.34934      6.47505     10.69529        -0.003332      0.004423      0.014171
      7.77150      0.04366     11.06817        -0.001328      0.003022      0.015302
      5.81626      3.31943     11.05647         0.000363      0.001620      0.015317
      3.59110      6.53047     10.77577        -0.000348      0.003149      0.013722
     -0.04597      2.22827      9.35140        -0.001356      0.002238      0.016314
     -1.94675      5.47396      9.37819        -0.000396      0.001455      0.016128
     -3.82529      8.99363      9.41794         0.000868      0.001124      0.016793
      3.94119      2.24333      9.33900         0.000842      0.001382      0.017173
      0.00859      9.03639      9.45016         0.000043      0.004206      0.016572
      7.75901      2.23335      9.40290        -0.001203      0.002102      0.015225
      5.82163      5.48405      9.36476        -0.000720      0.000225      0.017298
      3.83994      9.02253      9.40910        -0.002463      0.002764      0.016371
      1.94010      1.13709      7.85633        -0.000261      0.001135      0.016160
      0.17752      4.54745      7.94939        -0.003945      0.000429      0.017022
     -1.90756      7.79698      7.80871        -0.000815      0.001974      0.012326
      5.83966      1.11819      7.83166        -0.000990      0.002150      0.015009
      3.68624      4.57020      7.96759         0.002835      0.000937      0.016489
      1.92801      7.66782      7.98125        -0.000762      0.003973      0.017254
      9.68814      1.12303      7.82931        -0.000350      0.002091      0.014263
      7.75989      4.45611      7.81511        -0.000091      0.001389      0.014257
      5.81387      7.82436      7.84073        -0.000086      0.002068      0.013035
     -5.81372     10.07688      6.29139        -0.000254      0.001403      0.014430
     -1.87005      3.38653      6.30202         0.000214      0.001366      0.014411
      7.75539      6.70496      6.28699        -0.000389      0.001388      0.014938
      3.88125      0.00155      6.29904        -0.000740      0.001618      0.014624
      1.94338      3.34629      6.21483        -0.000452      0.000718      0.015188
      0.01513      6.71082      6.22785        -0.000245      0.000939      0.015479
      1.94251      9.99417      6.31788        -0.000188      0.000731      0.014234
      5.74542      3.39352      6.31096        -0.001064      0.001152      0.013705
      3.87512      6.72236      6.23832        -0.000233      0.001662      0.014967
     -0.00460      2.22341      4.68083         0.000039      0.000686      0.015176
     -1.94743      5.59792      4.68885        -0.000117      0.000716      0.015046
     -3.87361      8.95200      4.70776        -0.000210      0.001091      0.014874
      3.88843      2.22255      4.68145        -0.000554      0.000770      0.014926
      1.94524      5.59606      4.64915        -0.000351      0.000957      0.016619
     -0.00863      8.96497      4.70243        -0.000434      0.000760      0.014787
      7.75574      2.23555      4.75148        -0.000120      0.000818      0.015980
      5.82577      5.59798      4.68964        -0.000253      0.001010      0.014405
      3.88909      8.96560      4.69667         0.000048      0.000659      0.014493
      1.94096      1.11097      3.11021        -0.000046      0.000489      0.015481
     -0.00659      4.47369      3.11031        -0.000006      0.000429      0.015737
     -1.94030      7.83881      3.11032        -0.000065      0.000882      0.015386
      5.83309      1.12172      3.11782        -0.000162      0.000380      0.015045
      3.88819      4.47315      3.10915        -0.000036      0.000352      0.015234
      1.93978      7.84806      3.11363        -0.000102      0.000725      0.015265
      9.68437      1.12320      3.11878        -0.000260      0.000200      0.014883
      7.75836      4.46347      3.11881        -0.000416      0.000369      0.015051
      5.82281      7.83937      3.11150        -0.000306      0.000660      0.015348
      0.00000      0.00000      1.58368        -0.029873      0.007050      0.034045
      9.69800      3.35949      1.58368         0.006307     -0.000925      0.011492
      7.75840      6.71897      1.58368         0.001058     -0.039686      0.041077
      3.87920      0.00000      1.58368         0.033984      0.005859      0.032915
      1.93960      3.35949      1.58368         0.002478     -0.017889     -0.065840
     -0.00000      6.71897      1.58368         0.004662      0.002032     -0.044720
      7.75840      0.00000      1.58368         0.002862     -0.023489      0.019241
      5.81880      3.35949      1.58368        -0.001910     -0.004406      0.015935
      3.87920      6.71897      1.58368         0.004769      0.006342     -0.030512
     -0.00002      2.23967      0.00000         0.013819      0.013824      0.144941
     -1.93962      5.59915      0.00000         0.014680      0.001098      0.142924
     -3.87922      8.95864      0.00000        -0.001769     -0.000359      0.136711
      3.87918      2.23967      0.00000        -0.015277      0.013782      0.144559
      1.93958      5.59915      0.00000        -0.000399     -0.002162      0.154901
     -0.00002      8.95864      0.00000         0.003069     -0.019946      0.141062
      7.75838      2.23967      0.00000         0.001791      0.007106      0.132779
      5.81878      5.59915      0.00000        -0.013674      0.003850      0.142865
      3.87918      8.95864      0.00000        -0.000860     -0.019120      0.141199
     -1.49873      8.48375     12.75350        -0.000037     -0.002482      0.031071
     -1.74112      9.40765     12.37639        -0.005948      0.019598     -0.018034
     -2.05248      8.30211     13.53115        -0.004525      0.009222     -0.011147
 -----------------------------------------------------------------------------------
    total drift:                               -0.000431      0.000801     -0.042583


--------------------------------------------------------------------------------------------------------



  FREE ENERGIE OF THE ION-ELECTRON SYSTEM (eV)
  ---------------------------------------------------
  free  energy   TOTEN  =      -899.31504374 eV

  energy  without entropy=     -899.31504374  energy(sigma->0) =     -899.31504374
 


--------------------------------------------------------------------------------------------------------


    POTLOK:  cpu time      1.3978: real time      1.4052


--------------------------------------------------------------------------------------------------------


 writing wavefunctions
     LOOP+:  cpu time  14073.7899: real time  14182.3896
    4ORBIT:  cpu time      0.0000: real time      0.0000



 total charge

# of ion       s       p       d       f       tot
--------------------------------------------------
    1        1.975   5.642   0.488   1.107   9.213
    2        1.975   5.631   0.506   1.110   9.222
    3        1.945   5.536   0.751   0.675   8.907
    4        1.952   5.535   0.828   0.685   9.000
    5        1.947   5.541   0.746   0.680   8.913
    6        1.951   5.533   0.817   0.682   8.983
    7        1.950   5.533   0.816   0.678   8.978
    8        1.946   5.541   0.748   0.682   8.917
    9        1.947   5.541   0.766   0.689   8.942
   10        1.948   5.552   0.750   0.666   8.916
   11        1.948   5.551   0.746   0.667   8.913
   12        1.947   5.551   0.740   0.664   8.901
   13        1.948   5.552   0.751   0.667   8.918
   14        1.954   5.549   0.804   0.674   8.981
   15        1.946   5.550   0.737   0.663   8.896
   16        1.947   5.551   0.746   0.666   8.910
   17        1.947   5.551   0.746   0.667   8.911
   18        1.947   5.550   0.740   0.665   8.902
   19        1.948   5.553   0.747   0.665   8.913
   20        1.948   5.552   0.744   0.664   8.908
   21        1.948   5.553   0.747   0.665   8.912
   22        1.948   5.553   0.747   0.665   8.912
   23        1.949   5.554   0.756   0.668   8.927
   24        1.949   5.554   0.754   0.668   8.924
   25        1.947   5.552   0.742   0.664   8.905
   26        1.948   5.552   0.744   0.664   8.908
   27        1.949   5.554   0.753   0.667   8.923
   28        1.945   5.536   0.732   0.677   8.889
   29        1.945   5.536   0.732   0.677   8.889
   30        1.945   5.536   0.731   0.677   8.889
   31        1.945   5.536   0.729   0.677   8.887
   32        1.945   5.536   0.732   0.677   8.890
   33        1.945   5.536   0.731   0.677   8.889
   34        1.945   5.536   0.729   0.677   8.887
   35        1.945   5.536   0.729   0.677   8.887
   36        1.945   5.536   0.731   0.677   8.889
   37        1.590   3.402   0.000   0.000   4.992
   38        1.592   3.412   0.000   0.000   5.005
   39        1.591   3.419   0.000   0.000   5.010
   40        1.589   3.420   0.000   0.000   5.009
   41        1.592   3.413   0.000   0.000   5.006
   42        1.595   3.421   0.000   0.000   5.016
   43        1.592   3.407   0.000   0.000   4.999
   44        1.593   3.415   0.000   0.000   5.008
   45        1.593   3.413   0.000   0.000   5.005
   46        1.596   3.467   0.000   0.000   5.063
   47        1.593   3.472   0.000   0.000   5.066
   48        1.590   3.463   0.000   0.000   5.053
   49        1.595   3.463   0.000   0.000   5.058
   50        1.593   3.460   0.000   0.000   5.053
   51        1.594   3.456   0.000   0.000   5.050
   52        1.594   3.468   0.000   0.000   5.062
   53        1.594   3.466   0.000   0.000   5.059
   54        1.592   3.463   0.000   0.000   5.055
   55        1.590   3.449   0.000   0.000   5.039
   56        1.592   3.461   0.000   0.000   5.053
   57        1.591   3.458   0.000   0.000   5.049
   58        1.590   3.447   0.000   0.000   5.037
   59        1.589   3.447   0.000   0.000   5.036
   60        1.591   3.458   0.000   0.000   5.049
   61        1.591   3.458   0.000   0.000   5.049
   62        1.591   3.462   0.000   0.000   5.053
   63        1.591   3.458   0.000   0.000   5.049
   64        1.592   3.456   0.000   0.000   5.048
   65        1.591   3.460   0.000   0.000   5.051
   66        1.591   3.459   0.000   0.000   5.050
   67        1.593   3.463   0.000   0.000   5.055
   68        1.593   3.462   0.000   0.000   5.055
   69        1.592   3.452   0.000   0.000   5.044
   70        1.592   3.456   0.000   0.000   5.047
   71        1.593   3.461   0.000   0.000   5.054
   72        1.592   3.460   0.000   0.000   5.052
   73        1.592   3.458   0.000   0.000   5.050
   74        1.591   3.456   0.000   0.000   5.047
   75        1.592   3.460   0.000   0.000   5.052
   76        1.593   3.471   0.000   0.000   5.064
   77        1.591   3.457   0.000   0.000   5.048
   78        1.591   3.456   0.000   0.000   5.047
   79        1.592   3.458   0.000   0.000   5.050
   80        1.592   3.457   0.000   0.000   5.049
   81        1.591   3.464   0.000   0.000   5.056
   82        1.591   3.462   0.000   0.000   5.053
   83        1.591   3.465   0.000   0.000   5.057
   84        1.591   3.460   0.000   0.000   5.051
   85        1.591   3.462   0.000   0.000   5.053
   86        1.591   3.462   0.000   0.000   5.053
   87        1.591   3.460   0.000   0.000   5.051
   88        1.591   3.461   0.000   0.000   5.052
   89        1.592   3.465   0.000   0.000   5.057
   90        1.593   3.454   0.000   0.000   5.046
   91        1.593   3.454   0.000   0.000   5.047
   92        1.593   3.453   0.000   0.000   5.046
   93        1.593   3.454   0.000   0.000   5.046
   94        1.594   3.459   0.000   0.000   5.052
   95        1.593   3.458   0.000   0.000   5.051
   96        1.593   3.453   0.000   0.000   5.045
   97        1.593   3.454   0.000   0.000   5.047
   98        1.593   3.457   0.000   0.000   5.051
   99        1.591   3.392   0.000   0.000   4.983
  100        1.591   3.392   0.000   0.000   4.983
  101        1.591   3.392   0.000   0.000   4.983
  102        1.591   3.392   0.000   0.000   4.983
  103        1.591   3.393   0.000   0.000   4.983
  104        1.591   3.392   0.000   0.000   4.983
  105        1.591   3.392   0.000   0.000   4.983
  106        1.591   3.392   0.000   0.000   4.983
  107        1.591   3.392   0.000   0.000   4.983
  108        1.579   3.634   0.000   0.000   5.214
  109        0.744   0.296   0.000   0.000   1.039
  110        0.836   0.331   0.000   0.000   1.167
--------------------------------------------------
tot        186.335 448.640  26.535  25.070 686.580



 magnetization (x)

# of ion       s       p       d       f       tot
--------------------------------------------------
    1       -0.007  -0.021   0.007   0.970   0.950
    2       -0.006  -0.021   0.009   0.969   0.951
    3       -0.000  -0.000  -0.000   0.003   0.002
    4       -0.000  -0.000   0.000   0.001   0.001
    5       -0.000  -0.000  -0.000   0.001   0.001
    6       -0.000  -0.000  -0.000   0.001   0.001
    7       -0.000  -0.000  -0.000   0.001   0.001
    8       -0.000  -0.000  -0.000   0.001   0.001
    9       -0.000  -0.000  -0.000   0.002   0.001
   10       -0.000  -0.000  -0.000   0.000   0.000
   11       -0.000  -0.000   0.001   0.007   0.007
   12       -0.000  -0.000   0.000   0.005   0.005
   13       -0.000  -0.000  -0.000   0.000   0.000
   14        0.000  -0.000   0.000   0.000   0.000
   15       -0.000  -0.000   0.000   0.002   0.002
   16       -0.000  -0.000  -0.000   0.000   0.000
   17       -0.000  -0.000   0.000   0.004   0.004
   18       -0.000  -0.000   0.000   0.004   0.004
   19        0.000  -0.000   0.000   0.000   0.000
   20       -0.000  -0.000  -0.000  -0.000  -0.000
   21       -0.000  -0.000   0.000   0.000   0.000
   22       -0.000  -0.000  -0.000   0.000   0.000
   23       -0.000  -0.000   0.000  -0.000  -0.000
   24       -0.000  -0.000  -0.000   0.000   0.000
   25       -0.000  -0.000   0.000  -0.000  -0.000
   26       -0.000  -0.000  -0.000  -0.000  -0.000
   27       -0.000  -0.000  -0.000   0.000   0.000
   28       -0.000   0.000   0.000   0.000   0.000
   29       -0.000   0.000   0.000   0.000   0.000
   30       -0.000   0.000   0.000   0.000   0.000
   31       -0.000   0.000   0.000   0.000   0.000
   32       -0.000  -0.000  -0.000  -0.000  -0.000
   33        0.000  -0.000   0.000  -0.000  -0.000
   34       -0.000   0.000  -0.000   0.000   0.000
   35       -0.000   0.000  -0.000  -0.000  -0.000
   36       -0.000   0.000   0.000  -0.000  -0.000
   37       -0.000  -0.003   0.000   0.000  -0.003
   38       -0.000  -0.000   0.000   0.000  -0.000
   39       -0.000  -0.007   0.000   0.000  -0.007
   40       -0.000  -0.002   0.000   0.000  -0.002
   41       -0.000  -0.000   0.000   0.000  -0.000
   42       -0.000  -0.002   0.000   0.000  -0.002
   43       -0.000  -0.000   0.000   0.000  -0.000
   44       -0.000  -0.000   0.000   0.000  -0.000
   45       -0.000  -0.002   0.000   0.000  -0.002
   46       -0.000  -0.000   0.000   0.000  -0.000
   47       -0.000  -0.004   0.000   0.000  -0.004
   48       -0.000  -0.005   0.000   0.000  -0.005
   49       -0.000  -0.000   0.000   0.000  -0.000
   50       -0.000  -0.002   0.000   0.000  -0.003
   51       -0.000  -0.000   0.000   0.000  -0.000
   52       -0.000  -0.002   0.000   0.000  -0.003
   53       -0.000  -0.003   0.000   0.000  -0.003
   54       -0.000  -0.000   0.000   0.000  -0.000
   55       -0.000  -0.000   0.000   0.000  -0.000
   56       -0.000  -0.004   0.000   0.000  -0.004
   57       -0.000  -0.000   0.000   0.000  -0.000
   58       -0.000  -0.000   0.000   0.000  -0.000
   59       -0.000  -0.000   0.000   0.000  -0.000
   60       -0.000  -0.000   0.000   0.000  -0.000
   61       -0.000  -0.000   0.000   0.000  -0.000
   62       -0.000  -0.006   0.000   0.000  -0.007
   63       -0.000  -0.000   0.000   0.000  -0.000
   64       -0.000  -0.000   0.000   0.000  -0.000
   65       -0.000  -0.000   0.000   0.000  -0.000
   66       -0.000  -0.000   0.000   0.000  -0.000
   67       -0.000  -0.000   0.000   0.000  -0.000
   68       -0.000  -0.000   0.000   0.000  -0.000
   69       -0.000  -0.000   0.000   0.000  -0.000
   70       -0.000  -0.000   0.000   0.000  -0.000
   71       -0.000  -0.000   0.000   0.000  -0.000
   72       -0.000  -0.000   0.000   0.000  -0.000
   73       -0.000  -0.000   0.000   0.000  -0.000
   74       -0.000  -0.000   0.000   0.000  -0.000
   75       -0.000  -0.000   0.000   0.000  -0.000
   76       -0.000  -0.000   0.000   0.000  -0.000
   77       -0.000  -0.000   0.000   0.000  -0.000
   78       -0.000  -0.000   0.000   0.000  -0.000
   79       -0.000  -0.000   0.000   0.000  -0.000
   80       -0.000  -0.000   0.000   0.000  -0.000
   81       -0.000  -0.000   0.000   0.000  -0.000
   82       -0.000  -0.000   0.000   0.000  -0.000
   83       -0.000  -0.000   0.000   0.000  -0.000
   84       -0.000  -0.000   0.000   0.000  -0.000
   85       -0.000  -0.000   0.000   0.000  -0.000
   86       -0.000  -0.000   0.000   0.000  -0.000
   87       -0.000  -0.000   0.000   0.000  -0.000
   88       -0.000  -0.000   0.000   0.000  -0.000
   89       -0.000  -0.000   0.000   0.000  -0.000
   90       -0.000  -0.000   0.000   0.000  -0.000
   91       -0.000  -0.000   0.000   0.000  -0.000
   92       -0.000  -0.000   0.000   0.000  -0.000
   93       -0.000  -0.000   0.000   0.000  -0.000
   94       -0.000  -0.000   0.000   0.000  -0.000
   95       -0.000  -0.000   0.000   0.000  -0.000
   96       -0.000   0.000   0.000   0.000   0.000
   97       -0.000  -0.000   0.000   0.000  -0.000
   98       -0.000  -0.000   0.000   0.000  -0.000
   99       -0.000  -0.000   0.000   0.000  -0.000
  100       -0.000  -0.000   0.000   0.000  -0.000
  101       -0.000  -0.000   0.000   0.000  -0.000
  102       -0.000  -0.000   0.000   0.000  -0.000
  103       -0.000  -0.000   0.000   0.000  -0.000
  104       -0.000  -0.000   0.000   0.000  -0.000
  105        0.000   0.000   0.000   0.000   0.000
  106       -0.000  -0.000   0.000   0.000  -0.000
  107       -0.000  -0.000   0.000   0.000  -0.000
  108       -0.000  -0.001   0.000   0.000  -0.001
  109        0.000   0.000   0.000   0.000   0.000
  110       -0.000  -0.000   0.000   0.000  -0.000
--------------------------------------------------
tot         -0.016  -0.092   0.017   1.971   1.880
 

 total amount of memory used by VASP MPI-rank0   329730. kBytes
=======================================================================

   base      :      30000. kBytes
   nonl-proj :      38346. kBytes
   fftplans  :      27535. kBytes
   grid      :      28602. kBytes
   one-center:       1376. kBytes
   wavefun   :     203871. kBytes
 
  
  
 General timing and accounting informations for this job:
 ========================================================
  
                  Total CPU time used (sec):    14124.919
                            User time (sec):    13071.835
                          System time (sec):     1053.084
                         Elapsed time (sec):    14234.641
  
                   Maximum memory used (kb):      996916.
                   Average memory used (kb):          N/A
  
                          Minor page faults:       994209
                          Major page faults:            0
                 Voluntary context switches:        16733
