 vasp.6.3.0 20Jan22 (build Mar 16 2023 12:23:28) complex                        
  
 executed on             LinuxIFC date 2023.09.09  05:44:47
 running on   64 total cores
 distrk:  each k-point on   64 cores,    1 groups
 distr:  one band on NCORE=   8 cores,    8 groups


--------------------------------------------------------------------------------------------------------


 INCAR:
   ENCUT = 415.000000
   SIGMA = 0.050000
   EDIFF = 1.00e-06
   ALGO = ALL
   PREC = Accurate
   ICHARG = 2
   IDIPOL = 3
   ISMEAR = 0
   ISPIN = 2
   ISTART = 1
   LDAUPRINT = 0
   LDAUTYPE = 2
   LORBIT = 11
   NELM = 500
   NELMDL = -12
   NPAR = 8
   NWRITE = 2
   IVDW = 11
   NEDOS = 1001
   LDAUL = 3 -1 -1
   LDAUU = 4.5000 0.0000 0.0000
   LDAUJ = 0.0000 0.0000 0.0000
   ADDGRID = .TRUE.
   LASPH = .TRUE.
   LCHARG = .TRUE.
   LDAU = .TRUE.
   LDIPOL = .TRUE.
   LWAVE = .TRUE.
   LREAL = .FALSE.

 POTCAR:    PAW_PBE Ce_h 03Mar2005                
 POTCAR:    PAW_PBE O 08Apr2002                   
 POTCAR:    PAW_PBE H_s 15May2010                 
 -----------------------------------------------------------------------------
|                                                                             |
|           W    W    AA    RRRRR   N    N  II  N    N   GGGG   !!!           |
|           W    W   A  A   R    R  NN   N  II  NN   N  G    G  !!!           |
|           W    W  A    A  R    R  N N  N  II  N N  N  G       !!!           |
|           W WW W  AAAAAA  RRRRR   N  N N  II  N  N N  G  GGG   !            |
|           WW  WW  A    A  R   R   N   NN  II  N   NN  G    G                |
|           W    W  A    A  R    R  N    N  II  N    N   GGGG   !!!           |
|                                                                             |
|     You use a magnetic or noncollinear calculation, but did not specify     |
|     the initial magnetic moment with the MAGMOM tag. Note that a            |
|     default of 1 will be used for all atoms. This ferromagnetic setup       |
|     may break the symmetry of the crystal, in particular it may rule        |
|     out finding an antiferromagnetic solution. Thence, we recommend         |
|     setting the initial magnetic moment manually or verifying carefully     |
|     that this magnetic setup is desired.                                    |
|                                                                             |
 -----------------------------------------------------------------------------

 POTCAR:    PAW_PBE Ce_h 03Mar2005                
   VRHFIN =Ce : [core=Xe4] s2d1f1                                                                   
   LEXCH  = PE                                                                                      
   EATOM  =  1063.0861 eV,   78.1346 Ry                                                             
                                                                                                    
   TITEL  = PAW_PBE Ce_h 03Mar2005                                                                  
   LULTRA =        F    use ultrasoft PP ?                                                          
   IUNSCR =        1    unscreen: 0-lin 1-nonlin 2-no                                               
   RPACOR =    1.800    partial core radius                                                         
   POMASS =  140.115; ZVAL   =   12.000    mass and valenz                                          
   RCORE  =    2.570    outmost cutoff radius                                                       
   RWIGS  =    2.500; RWIGS  =    1.323    wigner-seitz radius (au A)                               
   ENMAX  =  299.900; ENMIN  =  224.925 eV                                                          
   RCLOC  =    1.810    cutoff for local pot                                                        
   LCOR   =        T    correct aug charges                                                         
   LPAW   =        T    paw PP                                                                      
   EAUG   =  659.424                                                                                
   DEXC   =    0.000                                                                                
   RMAX   =    2.621    core radius for proj-oper                                                   
   RAUG   =    1.300    factor for augmentation sphere                                              
   RDEP   =    2.636    radius for radial grids                                                     
   RDEPT  =    2.028    core radius for aug-charge                                                  
                                                                                                    
   Atomic configuration                                                                             
   14 entries                                                                                       
     n  l   j            E        occ.                                                              
     1  0  0.50    -40258.9816   2.0000                                                             
     2  0  0.50     -6445.4884   2.0000                                                             
     2  1  1.50     -5771.7470   6.0000                                                             
     3  0  0.50     -1387.9739   2.0000                                                             
     3  1  1.50     -1173.8158   6.0000                                                             
     3  2  2.50      -869.9108  10.0000                                                             
     4  0  0.50      -280.8706   2.0000                                                             
     4  1  1.50      -210.9815   6.0000                                                             
     4  2  2.50      -110.4558  10.0000                                                             
     5  0  0.50       -40.5819   2.0000                                                             
     6  0  0.50        -3.7444   2.0000                                                             
     5  1  1.50       -23.2188   6.0000                                                             
     5  2  2.50        -3.0598   1.0000                                                             
     4  3  2.50        -5.3970   1.0000                                                             
   Description                                                                                      
     l       E           TYP  RCUT    TYP  RCUT                                                     
     0    -40.5819164     23  1.500                                                                 
     0     -3.7443793     23  1.650                                                                 
     1    -23.2188445     23  1.800                                                                 
     1     13.6058260     23  1.800                                                                 
     2     -3.0597556     23  2.300                                                                 
     2      3.8919711     23  2.300                                                                 
     3     -5.3970469     23  2.570                                                                 
     3     -6.1226217     23  2.570                                                                 
  local pseudopotential read in
  partial core-charges read in
  partial kinetic energy density read in
  atomic valenz-charges read in
  non local Contribution for L=           0  read in
    real space projection operators read in
  non local Contribution for L=           0  read in
    real space projection operators read in
  non local Contribution for L=           1  read in
    real space projection operators read in
  non local Contribution for L=           1  read in
    real space projection operators read in
  non local Contribution for L=           2  read in
    real space projection operators read in
  non local Contribution for L=           2  read in
    real space projection operators read in
  non local Contribution for L=           3  read in
    real space projection operators read in
  non local Contribution for L=           3  read in
    real space projection operators read in
    PAW grid and wavefunctions read in
 
   number of l-projection  operators is LMAX  =           8
   number of lm-projection operators is LMMAX =          32
 
 POTCAR:    PAW_PBE O 08Apr2002                   
   VRHFIN =O: s2p4                                                                                  
   LEXCH  = PE                                                                                      
   EATOM  =   432.3788 eV,   31.7789 Ry                                                             
                                                                                                    
   TITEL  = PAW_PBE O 08Apr2002                                                                     
   LULTRA =        F    use ultrasoft PP ?                                                          
   IUNSCR =        1    unscreen: 0-lin 1-nonlin 2-no                                               
   RPACOR =    1.200    partial core radius                                                         
   POMASS =   16.000; ZVAL   =    6.000    mass and valenz                                          
   RCORE  =    1.520    outmost cutoff radius                                                       
   RWIGS  =    1.550; RWIGS  =    0.820    wigner-seitz radius (au A)                               
   ENMAX  =  400.000; ENMIN  =  300.000 eV                                                          
   ICORE  =        2    local potential                                                             
   LCOR   =        T    correct aug charges                                                         
   LPAW   =        T    paw PP                                                                      
   EAUG   =  605.392                                                                                
   DEXC   =    0.000                                                                                
   RMAX   =    1.553    core radius for proj-oper                                                   
   RAUG   =    1.300    factor for augmentation sphere                                              
   RDEP   =    1.550    radius for radial grids                                                     
   RDEPT  =    1.329    core radius for aug-charge                                                  
                                                                                                    
   Atomic configuration                                                                             
    4 entries                                                                                       
     n  l   j            E        occ.                                                              
     1  0  0.50      -514.6923   2.0000                                                             
     2  0  0.50       -23.9615   2.0000                                                             
     2  1  0.50        -9.0305   4.0000                                                             
     3  2  1.50        -9.5241   0.0000                                                             
   Description                                                                                      
     l       E           TYP  RCUT    TYP  RCUT                                                     
     0    -23.9615318     23  1.200                                                                 
     0     -9.5240782     23  1.200                                                                 
     1     -9.0304911     23  1.520                                                                 
     1      8.1634956     23  1.520                                                                 
     2     -9.5240782      7  1.500                                                                 
  local pseudopotential read in
  partial core-charges read in
  partial kinetic energy density read in
  kinetic energy density of atom read in
  atomic valenz-charges read in
  non local Contribution for L=           0  read in
    real space projection operators read in
  non local Contribution for L=           0  read in
    real space projection operators read in
  non local Contribution for L=           1  read in
    real space projection operators read in
  non local Contribution for L=           1  read in
    real space projection operators read in
    PAW grid and wavefunctions read in
 
   number of l-projection  operators is LMAX  =           4
   number of lm-projection operators is LMMAX =           8
 
 POTCAR:    PAW_PBE H_s 15May2010                 
   VRHFIN =H: ultrasoft test                                                                        
   LEXCH  = PE                                                                                      
   EATOM  =    12.4884 eV,    0.9179 Ry                                                             
                                                                                                    
   TITEL  = PAW_PBE H_s 15May2010                                                                   
   LULTRA =        F    use ultrasoft PP ?                                                          
   IUNSCR =        0    unscreen: 0-lin 1-nonlin 2-no                                               
   RPACOR =    0.000    partial core radius                                                         
   POMASS =    1.000; ZVAL   =    1.000    mass and valenz                                          
   RCORE  =    1.300    outmost cutoff radius                                                       
   RWIGS  =    0.700; RWIGS  =    0.370    wigner-seitz radius (au A)                               
   ENMAX  =  200.000; ENMIN  =  150.000 eV                                                          
   RCLOC  =    0.701    cutoff for local pot                                                        
   LCOR   =        T    correct aug charges                                                         
   LPAW   =        T    paw PP                                                                      
   EAUG   =  300.000                                                                                
   RMAX   =    1.330    core radius for proj-oper                                                   
   RAUG   =    1.200    factor for augmentation sphere                                              
   RDEP   =    1.337    radius for radial grids                                                     
   RDEPT  =    1.114    core radius for aug-charge                                                  
                                                                                                    
   Atomic configuration                                                                             
    2 entries                                                                                       
     n  l   j            E        occ.                                                              
     1  0  0.50        -6.4927   1.0000                                                             
     2  1  0.50        -3.4015   0.0000                                                             
   Description                                                                                      
     l       E           TYP  RCUT    TYP  RCUT                                                     
     0     -6.4927494     23  1.300                                                                 
     0      6.8029130     23  1.300                                                                 
     1     -4.0817478     23  1.300                                                                 
  local pseudopotential read in
  atomic valenz-charges read in
  non local Contribution for L=           0  read in
    real space projection operators read in
  non local Contribution for L=           0  read in
    real space projection operators read in
  non local Contribution for L=           1  read in
    real space projection operators read in
    PAW grid and wavefunctions read in
 
   number of l-projection  operators is LMAX  =           3
   number of lm-projection operators is LMMAX =           5
 
 -----------------------------------------------------------------------------
|                                                                             |
|               ----> ADVICE to this user running VASP <----                  |
|                                                                             |
|     You have a (more or less) 'large supercell' and for larger cells it     |
|     might be more efficient to use real-space projection operators.         |
|     Therefore, try LREAL= Auto in the INCAR file.                           |
|     Mind: For very accurate calculation, you might also keep the            |
|     reciprocal projection scheme (i.e. LREAL=.FALSE.).                      |
|                                                                             |
 -----------------------------------------------------------------------------

  PAW_PBE Ce_h 03Mar2005                :
 energy of atom  1       EATOM=-1063.0861
 kinetic energy error for atom=    0.0408 (will be added to EATOM!!)
  PAW_PBE O 08Apr2002                   :
 energy of atom  2       EATOM= -432.3788
 kinetic energy error for atom=    0.0819 (will be added to EATOM!!)
  PAW_PBE H_s 15May2010                 :
 energy of atom  3       EATOM=  -12.4884
 kinetic energy error for atom=    0.0007 (will be added to EATOM!!)
 
 
 POSCAR: Ce  O  H
  positions in cartesian coordinates
  No initial velocities read in
 exchange correlation table for  LEXCH =        8
   RHO(1)=    0.500       N(1)  =     2000
   RHO(2)=  100.500       N(2)  =     4000
 


--------------------------------------------------------------------------------------------------------


 ion  position               nearest neighbor table
   1  0.224  0.113  0.308-  55 2.32  40 2.33  41 2.35  46 2.37  37 2.38  49 2.38  48 2.39
   2  0.222  0.443  0.307-  56 2.32  42 2.33  41 2.35  46 2.36  38 2.38  47 2.39  50 2.39
   3  0.220  0.771  0.309-  47 2.32  42 2.35  51 2.36  48 2.36  57 2.37  39 2.38
   4  0.556  0.113  0.308-  58 2.33  40 2.33  44 2.35  52 2.37  51 2.38  49 2.38  43 2.38
   5  0.556  0.446  0.307-  59 2.33  50 2.35  53 2.36  49 2.37  45 2.37  44 2.38  41 2.38
   6  0.556  0.778  0.308-  60 2.31  42 2.35  43 2.36  45 2.36  54 2.38  50 2.39  51 2.41
   7  0.889  0.111  0.308-  61 2.32  38 2.36  43 2.36  54 2.38  46 2.38  37 2.38  52 2.38
   8  0.888  0.443  0.308-  62 2.32  39 2.35  44 2.35  52 2.36  47 2.37  38 2.38  53 2.39
   9  0.889  0.778  0.308-  63 2.31  37 2.36  39 2.36  45 2.37  54 2.37  53 2.38  48 2.41
  10  0.111  0.222  0.213-  46 2.33  73 2.36  64 2.37  68 2.37  65 2.37  61 2.38  55 2.38  56 2.38

  11  0.111  0.555  0.213-  47 2.35  57 2.36  74 2.36  65 2.37  66 2.37  56 2.38  69 2.38  62 2.38

  12  0.112  0.888  0.214-  48 2.35  63 2.36  67 2.37  75 2.37  55 2.37  57 2.37  66 2.38  64 2.39

  13  0.445  0.222  0.213-  49 2.31  76 2.36  71 2.37  67 2.37  68 2.37  59 2.38  58 2.39  55 2.39

  14  0.445  0.556  0.213-  50 2.32  77 2.36  69 2.36  59 2.37  68 2.37  72 2.37  56 2.38  60 2.40

  15  0.444  0.889  0.214-  51 2.36  60 2.36  57 2.37  67 2.37  78 2.37  58 2.37  69 2.38  70 2.38

  16  0.778  0.222  0.213-  52 2.33  79 2.36  71 2.37  70 2.37  65 2.37  61 2.38  58 2.38  62 2.38

  17  0.778  0.556  0.213-  53 2.32  80 2.36  66 2.37  59 2.37  71 2.38  72 2.38  62 2.38  63 2.39

  18  0.778  0.889  0.213-  54 2.32  72 2.36  81 2.36  64 2.37  70 2.37  61 2.37  63 2.39  60 2.40

  19  0.000  1.000  0.118-  91 2.33  64 2.36  73 2.37  81 2.37  75 2.37  82 2.38  90 2.38  88 2.38

  20  0.000  0.333  0.118-  92 2.33  65 2.36  79 2.37  73 2.37  74 2.37  88 2.38  83 2.38  89 2.38

  21  0.000  0.667  0.118-  93 2.33  66 2.36  75 2.37  74 2.37  80 2.38  90 2.38  84 2.38  89 2.38

  22  0.333  1.000  0.118-  94 2.33  67 2.37  75 2.37  78 2.37  76 2.37  84 2.38  85 2.38  82 2.38

  23  0.333  0.333  0.118-  95 2.33  68 2.36  76 2.37  73 2.37  77 2.37  83 2.38  86 2.38  82 2.38

  24  0.334  0.667  0.118-  96 2.33  69 2.36  78 2.37  74 2.37  77 2.38  87 2.38  84 2.38  83 2.38

  25  0.667  1.000  0.118-  97 2.33  70 2.36  79 2.37  81 2.37  78 2.37  87 2.38  85 2.38  88 2.38

  26  0.667  0.333  0.118-  98 2.33  71 2.36  76 2.37  79 2.37  80 2.37  89 2.38  85 2.38  86 2.38

  27  0.667  0.667  0.118-  99 2.33  77 2.37  72 2.37  80 2.37  81 2.37  90 2.38  87 2.38  86 2.38

  28  0.222  0.111  0.024-  82 2.32 102 2.38  94 2.38 103 2.38  91 2.38  95 2.38 100 2.38
  29  0.222  0.444  0.024-  83 2.32  95 2.38 100 2.38 104 2.38  92 2.38  96 2.38 101 2.38
  30  0.222  0.778  0.024-  84 2.32  96 2.38 105 2.38 101 2.38  94 2.38  93 2.38 102 2.38
  31  0.556  0.111  0.024-  85 2.32 105 2.38  97 2.38 106 2.38  94 2.38  98 2.38 103 2.38
  32  0.556  0.444  0.024-  86 2.32 103 2.38  98 2.38 107 2.38  95 2.38  99 2.38 104 2.38
  33  0.556  0.778  0.024-  87 2.32 104 2.38  99 2.38 108 2.38  96 2.38  97 2.38 105 2.38
  34  0.889  0.111  0.024-  88 2.32 108 2.38 100 2.38  91 2.38  97 2.38  92 2.38 106 2.38
  35  0.889  0.444  0.024-  89 2.32 106 2.38  92 2.38 101 2.38  98 2.38  93 2.38 107 2.38
  36  0.889  0.778  0.024-  90 2.32 102 2.38  93 2.38 107 2.38  91 2.38  99 2.38 108 2.38
  37  0.000  0.999  0.331-   9 2.36   7 2.38   1 2.38
  38  0.999  0.332  0.331-   7 2.36   2 2.38   8 2.38
  39  0.995  0.663  0.331-   8 2.35   9 2.36   3 2.38
  40  0.342  0.018  0.334-   1 2.33   4 2.33
  41  0.334  0.334  0.331-   1 2.35   2 2.35   5 2.38
  42  0.334  0.662  0.330-   2 2.33   6 2.35   3 2.35
  43  0.667  1.000  0.331-   6 2.36   7 2.36   4 2.38
  44  0.667  0.334  0.331-   4 2.35   8 2.35   5 2.38
  45  0.667  0.667  0.331-   6 2.36   9 2.37   5 2.37
  46  0.111  0.222  0.284-  10 2.33   2 2.36   1 2.37   7 2.38
  47  0.110  0.555  0.284-   3 2.32  11 2.35   8 2.37   2 2.39
  48  0.116  0.888  0.285-  12 2.35   3 2.36   1 2.39   9 2.41
  49  0.446  0.225  0.283-  13 2.31   5 2.37   1 2.38   4 2.38
  50  0.446  0.555  0.283-  14 2.32   5 2.35   6 2.39   2 2.39
  51  0.440  0.889  0.285-   3 2.36  15 2.36   4 2.38   6 2.41
  52  0.778  0.222  0.284-  16 2.33   8 2.36   4 2.37   7 2.38
  53  0.777  0.555  0.283-  17 2.32   5 2.36   9 2.38   8 2.39
  54  0.778  0.889  0.283-  18 2.32   9 2.37   7 2.38   6 2.38
  55  0.222  0.110  0.237-   1 2.32  12 2.37  10 2.38  13 2.39
  56  0.222  0.444  0.237-   2 2.32  11 2.38  14 2.38  10 2.38
  57  0.222  0.776  0.237-  11 2.36  15 2.37  12 2.37   3 2.37
  58  0.556  0.110  0.238-   4 2.33  15 2.37  16 2.38  13 2.39
  59  0.556  0.445  0.237-   5 2.33  17 2.37  14 2.37  13 2.38
  60  0.555  0.779  0.238-   6 2.31  15 2.36  14 2.40  18 2.40
  61  0.889  0.111  0.237-   7 2.32  18 2.37  16 2.38  10 2.38
  62  0.889  0.444  0.237-   8 2.32  11 2.38  17 2.38  16 2.38
  63  0.891  0.779  0.238-   9 2.31  12 2.36  17 2.39  18 2.39
  64  0.000  1.000  0.190-  19 2.36  18 2.37  10 2.37  12 2.39
  65  0.000  0.333  0.190-  20 2.36  10 2.37  11 2.37  16 2.37
  66  1.000  0.666  0.190-  21 2.36  17 2.37  11 2.37  12 2.38
  67  0.334  1.000  0.190-  22 2.37  12 2.37  15 2.37  13 2.37
  68  0.333  0.333  0.190-  23 2.36  10 2.37  13 2.37  14 2.37
  69  0.334  0.666  0.190-  24 2.36  14 2.36  11 2.38  15 2.38
  70  0.667  1.000  0.190-  25 2.36  18 2.37  16 2.37  15 2.38
  71  0.667  0.333  0.190-  26 2.36  16 2.37  13 2.37  17 2.38
  72  0.668  0.668  0.190-  18 2.36  27 2.37  14 2.37  17 2.38
  73  0.111  0.222  0.142-  10 2.36  19 2.37  23 2.37  20 2.37
  74  0.111  0.556  0.142-  11 2.36  24 2.37  21 2.37  20 2.37
  75  0.111  0.889  0.142-  12 2.37  22 2.37  21 2.37  19 2.37
  76  0.444  0.222  0.142-  13 2.36  23 2.37  22 2.37  26 2.37
  77  0.445  0.556  0.142-  14 2.36  27 2.37  23 2.37  24 2.38
  78  0.444  0.889  0.142-  15 2.37  22 2.37  24 2.37  25 2.37
  79  0.778  0.222  0.142-  16 2.36  25 2.37  20 2.37  26 2.37
  80  0.778  0.556  0.142-  17 2.36  27 2.37  26 2.37  21 2.38
  81  0.778  0.889  0.142-  18 2.36  19 2.37  25 2.37  27 2.37
  82  0.222  0.111  0.094-  28 2.32  19 2.38  23 2.38  22 2.38
  83  0.222  0.444  0.094-  29 2.32  23 2.38  20 2.38  24 2.38
  84  0.222  0.778  0.094-  30 2.32  22 2.38  21 2.38  24 2.38
  85  0.556  0.111  0.094-  31 2.32  25 2.38  26 2.38  22 2.38
  86  0.556  0.444  0.094-  32 2.32  23 2.38  26 2.38  27 2.38
  87  0.556  0.778  0.094-  33 2.32  24 2.38  25 2.38  27 2.38
  88  0.889  0.111  0.094-  34 2.32  20 2.38  25 2.38  19 2.38
  89  0.889  0.444  0.094-  35 2.32  26 2.38  21 2.38  20 2.38
  90  0.889  0.778  0.094-  36 2.32  21 2.38  19 2.38  27 2.38
  91  0.000  0.000  0.048-  19 2.33  34 2.38  36 2.38  28 2.38
  92  1.000  0.333  0.048-  20 2.33  35 2.38  29 2.38  34 2.38
  93  1.000  0.667  0.048-  21 2.33  36 2.38  30 2.38  35 2.38
  94  0.333  0.000  0.048-  22 2.33  28 2.38  30 2.38  31 2.38
  95  0.333  0.333  0.048-  23 2.33  29 2.38  32 2.38  28 2.38
  96  0.333  0.667  0.048-  24 2.33  30 2.38  33 2.38  29 2.38
  97  0.667  0.000  0.048-  25 2.33  31 2.38  33 2.38  34 2.38
  98  0.667  0.333  0.048-  26 2.33  32 2.38  35 2.38  31 2.38
  99  0.667  0.667  0.048-  27 2.33  33 2.38  36 2.38  32 2.38
 100  0.111  0.222  0.000-  29 2.38  34 2.38  28 2.38
 101  0.111  0.556  0.000-  35 2.38  30 2.38  29 2.38
 102  0.111  0.889  0.000-  28 2.38  36 2.38  30 2.38
 103  0.444  0.222  0.000-  32 2.38  28 2.38  31 2.38
 104  0.444  0.556  0.000-  29 2.38  33 2.38  32 2.38
 105  0.444  0.889  0.000-  31 2.38  30 2.38  33 2.38
 106  0.778  0.222  0.000-  35 2.38  31 2.38  34 2.38
 107  0.778  0.556  0.000-  36 2.38  32 2.38  35 2.38
 108  0.778  0.889  0.000-  34 2.38  33 2.38  36 2.38
 109  0.241  0.827  0.385- 111 0.97 110 1.01
 110  0.284  0.921  0.375- 109 1.01
 111  0.155  0.804  0.397- 109 0.97
 
  LATTYP: Found a hexagonal cell.
 ALAT       =    11.6375999451
 C/A-ratio  =     2.8430002094
  
  Lattice vectors:
  
 A1 = (  11.6375999451,   0.0000000000,   0.0000000000)
 A2 = (  -5.8188004494,  10.0784580174,   0.0000000000)
 A3 = (   0.0000000000,   0.0000000000,  33.0856990814)


Analysis of symmetry for initial positions (statically):
=====================================================================
 Subroutine PRICEL returns:
 Original cell was already a primitive cell.
 

 Routine SETGRP: Setting up the symmetry group for a 
 hexagonal supercell.


 Subroutine GETGRP returns: Found  1 space group operations
 (whereof  1 operations were pure point group operations)
 out of a pool of 24 trial point group operations.


The static configuration has the point symmetry C_1 .


Analysis of symmetry for dynamics (positions and initial velocities):
=====================================================================
 Subroutine PRICEL returns:
 Original cell was already a primitive cell.
 

 Routine SETGRP: Setting up the symmetry group for a 
 hexagonal supercell.


 Subroutine GETGRP returns: Found  1 space group operations
 (whereof  1 operations were pure point group operations)
 out of a pool of 24 trial point group operations.


The dynamic configuration has the point symmetry C_1 .


Analysis of constrained symmetry for selective dynamics:
=====================================================================
 Subroutine PRICEL returns:
 Original cell was already a primitive cell.
 

 Routine SETGRP: Setting up the symmetry group for a 
 hexagonal supercell.


 Subroutine GETGRP returns: Found  1 space group operations
 (whereof  1 operations were pure point group operations)
 out of a pool of 24 trial point group operations.


The constrained configuration has the point symmetry C_1 .


Analysis of structural, dynamic, and magnetic symmetry:
=====================================================================
 Subroutine PRICEL returns:
 Original cell was already a primitive cell.
 

 Routine SETGRP: Setting up the symmetry group for a 
 hexagonal supercell.


 Subroutine GETGRP returns: Found  1 space group operations
 (whereof  1 operations were pure point group operations)
 out of a pool of 24 trial point group operations.


The overall configuration has the point symmetry C_1 .


 Subroutine INISYM returns: Found  1 space group operations
 (whereof  1 operations are pure point group operations),
 and found     1 'primitive' translations


----------------------------------------------------------------------------------------

                                     Primitive cell                                     

  volume of cell :    3880.5906

  direct lattice vectors                    reciprocal lattice vectors
    11.637599945  0.000000000  0.000000000     0.085928371  0.049610768  0.000000000
    -5.818800449 10.078458017  0.000000000     0.000000000  0.099221528  0.000000000
     0.000000000  0.000000000 33.085699081     0.000000000  0.000000000  0.030224539

  length of vectors
    11.637599945 11.637600899 33.085699081     0.099221536  0.099221528  0.030224539

  position of ions in fractional coordinates (direct lattice)
     0.224060580  0.113351622  0.307621754
     0.222432041  0.442977174  0.307449550
     0.219750347  0.770779005  0.308635080
     0.556317374  0.113303167  0.307848412
     0.556385323  0.445549727  0.307147671
     0.556004613  0.777927181  0.307607584
     0.888872022  0.110823857  0.307623446
     0.887737659  0.443200371  0.307567613
     0.889442705  0.777891442  0.307520115
     0.111132112  0.221822785  0.213143653
     0.111145802  0.555320385  0.213125020
     0.112163775  0.888498612  0.213671042
     0.444835326  0.222416767  0.213063948
     0.444729012  0.555671251  0.213159401
     0.443653218  0.888651404  0.213678208
     0.777644058  0.221886288  0.213201334
     0.778141384  0.555629653  0.213136651
     0.778290728  0.889477259  0.213262580
     0.000192929  0.999906002  0.118328134
     0.000004984  0.333176260  0.118238900
     0.000155247  0.666796135  0.118295103
     0.333291795  0.999707897  0.118305584
     0.333405060  0.333273547  0.118229072
     0.333541822  0.666780952  0.118313466
     0.666583783  0.999920968  0.118330733
     0.666739397  0.333250485  0.118220235
     0.666866518  0.666867874  0.118271006
     0.222223342  0.111110002  0.023932983
     0.222223339  0.444443322  0.023932983
     0.222223319  0.777776712  0.023932983
     0.555556645  0.111110002  0.023932983
     0.555556631  0.444443322  0.023932983
     0.555556612  0.777776712  0.023932983
     0.888889978  0.111110002  0.023932983
     0.888889985  0.444443322  0.023932983
     0.888889986  0.777776712  0.023932983
     0.000461296  0.999033608  0.330924132
     0.999410216  0.331669084  0.330890628
     0.995133983  0.662795137  0.331226247
     0.342159548  0.018240894  0.334154567
     0.333525170  0.333741045  0.330866551
     0.334126151  0.661993687  0.329702694
     0.667091333  0.999608020  0.330618226
     0.667250300  0.333916421  0.330999959
     0.667395843  0.667499081  0.330893719
     0.111173681  0.221899623  0.283500562
     0.110276808  0.555198543  0.284037611
     0.116145479  0.888151867  0.284820494
     0.446096058  0.224873557  0.282787694
     0.446234622  0.554788050  0.283133630
     0.439931391  0.889280474  0.284939175
     0.777839056  0.222364518  0.283590114
     0.776881286  0.555231969  0.283249003
     0.778225253  0.888710917  0.283485243
     0.221873938  0.110251429  0.237461421
     0.222157231  0.444468361  0.237428722
     0.221702524  0.775584936  0.236924189
     0.555596210  0.110413789  0.237513313
     0.556415902  0.445106987  0.236732008
     0.554776925  0.779051829  0.237904021
     0.888964689  0.111132017  0.237427631
     0.889047999  0.444280532  0.237333972
     0.891327628  0.778921618  0.237767056
     0.000071381  0.999857965  0.189668126
     0.000031022  0.332975557  0.189538530
     0.999702425  0.666327922  0.189546658
     0.333508399  0.999880007  0.189805323
     0.333077064  0.333114292  0.189604767
     0.333865346  0.666257127  0.189525640
     0.666726788  0.999770629  0.189657991
     0.666967436  0.332998945  0.189524522
     0.667550156  0.668209563  0.189839095
     0.111177549  0.222041010  0.141819617
     0.111235140  0.555567454  0.141879430
     0.111463273  0.888823665  0.142065967
     0.444453168  0.222086600  0.141801052
     0.445042712  0.555532314  0.141848967
     0.444274131  0.888833699  0.142056749
     0.777792521  0.222028518  0.141817178
     0.777518173  0.555620276  0.141868874
     0.778014658  0.889092407  0.141836410
     0.222246022  0.110951293  0.094103665
     0.222373783  0.444472605  0.094129335
     0.222278385  0.777760903  0.094101805
     0.555501933  0.110966242  0.094104864
     0.555629708  0.444406222  0.094063116
     0.555563327  0.777815566  0.094132352
     0.888967550  0.111106402  0.094091892
     0.888912739  0.444489623  0.094125008
     0.889082071  0.777822187  0.094127081
     0.000000000  0.000000000  0.047865966
     0.999999998  0.333333343  0.047865966
     0.999999996  0.666666686  0.047865966
     0.333333333  0.000000000  0.047865966
     0.333333331  0.333333343  0.047865966
     0.333333329  0.666666686  0.047865966
     0.666666667  0.000000000  0.047865966
     0.666666685  0.333333343  0.047865966
     0.666666663  0.666666686  0.047865966
     0.111109999  0.222223340  0.000000000
     0.111109996  0.555556660  0.000000000
     0.111110007  0.888890050  0.000000000
     0.444443374  0.222223340  0.000000000
     0.444443360  0.555556660  0.000000000
     0.444443382  0.888890050  0.000000000
     0.777776748  0.222223340  0.000000000
     0.777776714  0.555556660  0.000000000
     0.777776756  0.888890050  0.000000000
     0.240704130  0.826555962  0.385150280
     0.283646852  0.920812135  0.374536906
     0.154902259  0.803962003  0.396677248

  ion indices of the primitive-cell ions
   primitive index   ion index
                 1           1
                 2           2
                 3           3
                 4           4
                 5           5
                 6           6
                 7           7
                 8           8
                 9           9
                10          10
                11          11
                12          12
                13          13
                14          14
                15          15
                16          16
                17          17
                18          18
                19          19
                20          20
                21          21
                22          22
                23          23
                24          24
                25          25
                26          26
                27          27
                28          28
                29          29
                30          30
                31          31
                32          32
                33          33
                34          34
                35          35
                36          36
                37          37
                38          38
                39          39
                40          40
                41          41
                42          42
                43          43
                44          44
                45          45
                46          46
                47          47
                48          48
                49          49
                50          50
                51          51
                52          52
                53          53
                54          54
                55          55
                56          56
                57          57
                58          58
                59          59
                60          60
                61          61
                62          62
                63          63
                64          64
                65          65
                66          66
                67          67
                68          68
                69          69
                70          70
                71          71
                72          72
                73          73
                74          74
                75          75
                76          76
                77          77
                78          78
                79          79
                80          80
                81          81
                82          82
                83          83
                84          84
                85          85
                86          86
                87          87
                88          88
                89          89
                90          90
                91          91
                92          92
                93          93
                94          94
                95          95
                96          96
                97          97
                98          98
                99          99
               100         100
               101         101
               102         102
               103         103
               104         104
               105         105
               106         106
               107         107
               108         108
               109         109
               110         110
               111         111

----------------------------------------------------------------------------------------

 
 
 KPOINTS: KPOINTS created by Atomic Simulation Env

Automatic generation of k-mesh.
 Grid dimensions read from file:
 generate k-points for:    2    2    1

 Generating k-lattice:

  Cartesian coordinates                     Fractional coordinates (reciprocal lattice)
     0.042964185  0.024805384  0.000000000     0.500000000 -0.000000000  0.000000000
     0.000000000  0.049610764  0.000000000     0.000000000  0.500000000  0.000000000
     0.000000000  0.000000000  0.030224539     0.000000000  0.000000000  1.000000000

  Length of vectors
     0.049610768  0.049610764  0.030224539

  Shift w.r.t. Gamma in fractional coordinates (k-lattice)
     0.000000000  0.000000000  0.000000000

 
 Subroutine IBZKPT returns following result:
 ===========================================
 
 Found      4 irreducible k-points:
 
 Following reciprocal coordinates:
            Coordinates               Weight
  0.000000  0.000000  0.000000      1.000000
  0.500000  0.000000  0.000000      1.000000
  0.000000  0.500000  0.000000      1.000000
  0.500000  0.500000  0.000000      1.000000
 
 Following cartesian coordinates:
            Coordinates               Weight
  0.000000  0.000000  0.000000      1.000000
  0.042964  0.024805  0.000000      1.000000
  0.000000  0.049611  0.000000      1.000000
  0.042964  0.074416  0.000000      1.000000
 


--------------------------------------------------------------------------------------------------------




 Dimension of arrays:
   k-points           NKPTS =      4   k-points in BZ     NKDIM =      4   number of bands    NBANDS=    584
   number of dos      NEDOS =   1001   number of ions     NIONS =    111
   non local maximal  LDIM  =      8   non local SUM 2l+1 LMDIM =     32
   total plane-waves  NPLWV = ******
   max r-space proj   IRMAX =      1   max aug-charges    IRDMAX= 128752
   dimension x,y,z NGX =    80 NGY =   80 NGZ =  224
   dimension x,y,z NGXF=   160 NGYF=  160 NGZF=  448
   support grid    NGXF=   320 NGYF=  320 NGZF=  896
   ions per type =              36  73   2
   NGX,Y,Z   is equivalent  to a cutoff of  11.43, 11.43, 11.26 a.u.
   NGXF,Y,Z  is equivalent  to a cutoff of  22.86, 22.86, 22.51 a.u.

 SYSTEM =  unknown system                          
 POSCAR =  Ce  O  H                                

 Startparameter for this run:
   NWRITE =      2    write-flag & timer
   PREC   = accura    normal or accurate (medium, high low for compatibility)
   ISTART =      1    job   : 0-new  1-cont  2-samecut
   ICHARG =      2    charge: 1-file 2-atom 10-const
   ISPIN  =      2    spin polarized calculation?
   LNONCOLLINEAR =      F non collinear calculations
   LSORBIT =      F    spin-orbit coupling
   INIWAV =      1    electr: 0-lowe 1-rand  2-diag
   LASPH  =      T    aspherical Exc in radial PAW
 Electronic Relaxation 1
   ENCUT  =  415.0 eV  30.50 Ry    5.52 a.u.  19.33 19.33 54.96*2*pi/ulx,y,z
   ENINI  =  415.0     initial cutoff
   ENAUG  =  659.4 eV  augmentation charge cutoff
   NELM   =    500;   NELMIN=  2; NELMDL=-12     # of ELM steps 
   EDIFF  = 0.1E-05   stopping-criterion for ELM
   LREAL  =      F    real-space projection
   NLSPLINE    = F    spline interpolate recip. space projectors
   LCOMPAT=      F    compatible to vasp.4.4
   GGA_COMPAT  = T    GGA compatible to vasp.4.4-vasp.4.6
   LMAXPAW     = -100 max onsite density
   LMAXMIX     =    2 max onsite mixed and CHGCAR
   VOSKOWN=      0    Vosko Wilk Nusair interpolation
   ROPT   =    0.00000   0.00000   0.00000
 Ionic relaxation
   EDIFFG = 0.1E-04   stopping-criterion for IOM
   NSW    =      0    number of steps for IOM
   NBLOCK =      1;   KBLOCK =      1    inner block; outer block 
   IBRION =     -1    ionic relax: 0-MD 1-quasi-New 2-CG
   NFREE  =      0    steps in history (QN), initial steepest desc. (CG)
   ISIF   =      2    stress and relaxation
   IWAVPR =     10    prediction:  0-non 1-charg 2-wave 3-comb
   ISYM   =      2    0-nonsym 1-usesym 2-fastsym
   LCORR  =      T    Harris-Foulkes like correction to forces

   POTIM  = 0.5000    time-step for ionic-motion
   TEIN   =    0.0    initial temperature
   TEBEG  =    0.0;   TEEND  =   0.0 temperature during run
   SMASS  =  -3.00    Nose mass-parameter (am)
   estimated Nose-frequenzy (Omega)   =  0.10E-29 period in steps = 0.13E+47 mass=  -0.310E-26a.u.
   SCALEE = 1.0000    scale energy and forces
   NPACO  =    256;   APACO  = 10.0  distance and # of slots for P.C.
   PSTRESS=    0.0 pullay stress

  Mass of Ions in am
   POMASS = 140.12 16.00  1.00
  Ionic Valenz
   ZVAL   =  12.00  6.00  1.00
  Atomic Wigner-Seitz radii
   RWIGS  =  -1.00 -1.00 -1.00
  virtual crystal weights 
   VCA    =   1.00  1.00  1.00
   NELECT =     872.0000    total number of electrons
   NUPDOWN=      -1.0000    fix difference up-down

 DOS related values:
   EMIN   =  10.00;   EMAX   =-10.00  energy-range for DOS
   EFERMI =   0.00
   ISMEAR =     0;   SIGMA  =   0.05  broadening in eV -4-tet -1-fermi 0-gaus

 Electronic relaxation 2 (details)
   IALGO  =     58    algorithm
   LDIAG  =      T    sub-space diagonalisation (order eigenvalues)
   LSUBROT=      F    optimize rotation matrix (better conditioning)
   TURBO    =      0    0=normal 1=particle mesh
   IRESTART =      0    0=no restart 2=restart with 2 vectors
   NREBOOT  =      0    no. of reboots
   NMIN     =      0    reboot dimension
   EREF     =   0.00    reference energy to select bands
   IMIX   =      4    mixing-type and parameters
     AMIX     =   0.40;   BMIX     =  1.00
     AMIX_MAG =   1.60;   BMIX_MAG =  1.00
     AMIN     =   0.10
     WC   =   100.;   INIMIX=   1;  MIXPRE=   1;  MAXMIX= -45

 Intra band minimization:
   WEIMIN = 0.0000     energy-eigenvalue tresh-hold
   EBREAK =  0.43E-09  absolut break condition
   DEPER  =   0.30     relativ break condition  

   TIME   =   0.40     timestep for ELM

  volume/ion in A,a.u.               =      34.96       235.92
  Fermi-wavevector in a.u.,A,eV,Ry     =   0.995286  1.880817 13.477841  0.990593
  Thomas-Fermi vector in A             =   2.127295
 
 Write flags
   LWAVE        =      T    write WAVECAR
   LDOWNSAMPLE  =      F    k-point downsampling of WAVECAR
   LCHARG       =      T    write CHGCAR
   LVTOT        =      F    write LOCPOT, total local potential
   LVHAR        =      F    write LOCPOT, Hartree potential only
   LELF         =      F    write electronic localiz. function (ELF)
   LORBIT       =     11    0 simple, 1 ext, 2 COOP (PROOUT), +10 PAW based schemes


 Dipole corrections
   LMONO  =      F    monopole corrections only (constant potential shift)
   LDIPOL =      T    correct potential (dipole corrections)
   IDIPOL =      3    1-x, 2-y, 3-z, 4-all directions 
   EPSILON=  1.0000000 bulk dielectric constant

 LDA+U is selected, type is set to LDAUTYPE =  2
   angular momentum for each species LDAUL =     3   -1   -1
   U (eV)           for each species LDAUU =   4.5  0.0  0.0
   J (eV)           for each species LDAUJ =   0.0  0.0  0.0
 Exchange correlation treatment:
   GGA     =    --    GGA type
   LEXCH   =     8    internal setting for exchange type
   LIBXC   =     F    Libxc                    
   VOSKOWN =     0    Vosko Wilk Nusair interpolation
   LHFCALC =     F    Hartree Fock is set to
   LHFONE  =     F    Hartree Fock one center treatment
   AEXX    =    0.0000 exact exchange contribution

 Linear response parameters
   LEPSILON=     F    determine dielectric tensor
   LRPA    =     F    only Hartree local field effects (RPA)
   LNABLA  =     F    use nabla operator in PAW spheres
   LVEL    =     F    velocity operator in full k-point grid
   CSHIFT  =0.1000    complex shift for real part using Kramers Kronig
   OMEGAMAX=  -1.0    maximum frequency
   DEG_THRESHOLD= 0.2000000E-02 threshold for treating states as degnerate
   RTIME   =   -0.100 relaxation time in fs
  (WPLASMAI=    0.000 imaginary part of plasma frequency in eV, 0.658/RTIME)
   DFIELD  = 0.0000000 0.0000000 0.0000000 field for delta impulse in time
 
  Optional k-point grid parameters
   LKPOINTS_OPT  =     F    use optional k-point grid
   KPOINTS_OPT_MODE=     1    mode for optional k-point grid
 
 Orbital magnetization related:
   ORBITALMAG=     F  switch on orbital magnetization
   LCHIMAG   =     F  perturbation theory with respect to B field
   DQ        =  0.001000  dq finite difference perturbation B field
   LLRAUG    =     F  two centre corrections for induced B field



--------------------------------------------------------------------------------------------------------


 Static calculation
 charge density and potential will be updated during run
 spin polarized calculation
 Conjugate gradient for all bands (Freysoldt, et al. PRB 79, 241103 (2009))
 preconditioned conjugated gradient                                        
 perform sub-space diagonalisation
    before iterative eigenvector-optimisation
 modified Broyden-mixing scheme, WC =      100.0
 initial mixing is a Kerker type mixing with AMIX =  0.4000 and BMIX =      1.0000
 Hartree-type preconditioning will be used
 using additional bands          148
 reciprocal scheme for non local part
 use partial core corrections
 no Harris-corrections to forces 
 use gradient corrections 
 use of overlap-Matrix (Vanderbilt PP)
 Gauss-broadening in eV      SIGMA  =   0.05


--------------------------------------------------------------------------------------------------------


  energy-cutoff  :      415.00
  volume of cell :     3880.59
      direct lattice vectors                 reciprocal lattice vectors
    11.637599945  0.000000000  0.000000000     0.085928371  0.049610768  0.000000000
    -5.818800449 10.078458017  0.000000000     0.000000000  0.099221528  0.000000000
     0.000000000  0.000000000 33.085699081     0.000000000  0.000000000  0.030224539

  length of vectors
    11.637599945 11.637600899 33.085699081     0.099221536  0.099221528  0.030224539


 
 old parameters found on file WAVECAR:
  energy-cutoff  :      415.00
  volume of cell :     3294.15
      direct lattice vectors                 reciprocal lattice vectors
    11.637599945  0.000000000  0.000000000     0.085928371  0.049610768  0.000000000
    -5.818800449 10.078458017  0.000000000     0.000000000  0.099221528  0.000000000
     0.000000000  0.000000000 28.085699081     0.000000000  0.000000000  0.035605309

  length of vectors

 
 k-points in units of 2pi/SCALE and weight: KPOINTS created by Atomic Simulation Env
   0.00000000  0.00000000  0.00000000       0.250
   0.04296419  0.02480538  0.00000000       0.250
   0.00000000  0.04961076  0.00000000       0.250
   0.04296419  0.07441615  0.00000000       0.250
 
 k-points in reciprocal lattice and weights: KPOINTS created by Atomic Simulation Env
   0.00000000  0.00000000  0.00000000       0.250
   0.50000000  0.00000000  0.00000000       0.250
   0.00000000  0.50000000  0.00000000       0.250
   0.50000000  0.50000000  0.00000000       0.250
 
 position of ions in fractional coordinates (direct lattice) 
   0.22406058  0.11335162  0.30762175
   0.22243204  0.44297717  0.30744955
   0.21975035  0.77077900  0.30863508
   0.55631737  0.11330317  0.30784841
   0.55638532  0.44554973  0.30714767
   0.55600461  0.77792718  0.30760758
   0.88887202  0.11082386  0.30762345
   0.88773766  0.44320037  0.30756761
   0.88944270  0.77789144  0.30752011
   0.11113211  0.22182278  0.21314365
   0.11114580  0.55532038  0.21312502
   0.11216377  0.88849861  0.21367104
   0.44483533  0.22241677  0.21306395
   0.44472901  0.55567125  0.21315940
   0.44365322  0.88865140  0.21367821
   0.77764406  0.22188629  0.21320133
   0.77814138  0.55562965  0.21313665
   0.77829073  0.88947726  0.21326258
   0.00019293  0.99990600  0.11832813
   0.00000498  0.33317626  0.11823890
   0.00015525  0.66679614  0.11829510
   0.33329179  0.99970790  0.11830558
   0.33340506  0.33327355  0.11822907
   0.33354182  0.66678095  0.11831347
   0.66658378  0.99992097  0.11833073
   0.66673940  0.33325048  0.11822024
   0.66686652  0.66686787  0.11827101
   0.22222334  0.11111000  0.02393298
   0.22222334  0.44444332  0.02393298
   0.22222332  0.77777671  0.02393298
   0.55555665  0.11111000  0.02393298
   0.55555663  0.44444332  0.02393298
   0.55555661  0.77777671  0.02393298
   0.88888998  0.11111000  0.02393298
   0.88888998  0.44444332  0.02393298
   0.88888999  0.77777671  0.02393298
   0.00046130  0.99903361  0.33092413
   0.99941022  0.33166908  0.33089063
   0.99513398  0.66279514  0.33122625
   0.34215955  0.01824089  0.33415457
   0.33352517  0.33374105  0.33086655
   0.33412615  0.66199369  0.32970269
   0.66709133  0.99960802  0.33061823
   0.66725030  0.33391642  0.33099996
   0.66739584  0.66749908  0.33089372
   0.11117368  0.22189962  0.28350056
   0.11027681  0.55519854  0.28403761
   0.11614548  0.88815187  0.28482049
   0.44609606  0.22487356  0.28278769
   0.44623462  0.55478805  0.28313363
   0.43993139  0.88928047  0.28493918
   0.77783906  0.22236452  0.28359011
   0.77688129  0.55523197  0.28324900
   0.77822525  0.88871092  0.28348524
   0.22187394  0.11025143  0.23746142
   0.22215723  0.44446836  0.23742872
   0.22170252  0.77558494  0.23692419
   0.55559621  0.11041379  0.23751331
   0.55641590  0.44510699  0.23673201
   0.55477693  0.77905183  0.23790402
   0.88896469  0.11113202  0.23742763
   0.88904800  0.44428053  0.23733397
   0.89132763  0.77892162  0.23776706
   0.00007138  0.99985797  0.18966813
   0.00003102  0.33297556  0.18953853
   0.99970243  0.66632792  0.18954666
   0.33350840  0.99988001  0.18980532
   0.33307706  0.33311429  0.18960477
   0.33386535  0.66625713  0.18952564
   0.66672679  0.99977063  0.18965799
   0.66696744  0.33299894  0.18952452
   0.66755016  0.66820956  0.18983909
   0.11117755  0.22204101  0.14181962
   0.11123514  0.55556745  0.14187943
   0.11146327  0.88882367  0.14206597
   0.44445317  0.22208660  0.14180105
   0.44504271  0.55553231  0.14184897
   0.44427413  0.88883370  0.14205675
   0.77779252  0.22202852  0.14181718
   0.77751817  0.55562028  0.14186887
   0.77801466  0.88909241  0.14183641
   0.22224602  0.11095129  0.09410366
   0.22237378  0.44447260  0.09412934
   0.22227838  0.77776090  0.09410181
   0.55550193  0.11096624  0.09410486
   0.55562971  0.44440622  0.09406312
   0.55556333  0.77781557  0.09413235
   0.88896755  0.11110640  0.09409189
   0.88891274  0.44448962  0.09412501
   0.88908207  0.77782219  0.09412708
   0.00000000  0.00000000  0.04786597
   1.00000000  0.33333334  0.04786597
   1.00000000  0.66666669  0.04786597
   0.33333333  0.00000000  0.04786597
   0.33333333  0.33333334  0.04786597
   0.33333333  0.66666669  0.04786597
   0.66666667  0.00000000  0.04786597
   0.66666669  0.33333334  0.04786597
   0.66666666  0.66666669  0.04786597
   0.11111000  0.22222334  0.00000000
   0.11111000  0.55555666  0.00000000
   0.11111001  0.88889005  0.00000000
   0.44444337  0.22222334  0.00000000
   0.44444336  0.55555666  0.00000000
   0.44444338  0.88889005  0.00000000
   0.77777675  0.22222334  0.00000000
   0.77777671  0.55555666  0.00000000
   0.77777676  0.88889005  0.00000000
   0.24070413  0.82655596  0.38515028
   0.28364685  0.92081214  0.37453691
   0.15490226  0.80396200  0.39667725
 
 position of ions in cartesian coordinates  (Angst):
   1.94795693  1.14240956 10.17788077
   0.01097933  4.46452685 10.17218330
  -1.92764259  7.76826384 10.21140739
   5.81491052  1.14192121 10.18537993
   3.88242486  4.49045421 10.16219541
   1.94395622  7.84030644 10.17741197
   9.69947509  1.11693359 10.17793678
   7.75224121  4.46677634 10.17608948
   5.82458330  7.83994624 10.17451798
   0.00256854  2.23563163  7.05200677
  -1.93782813  5.59677318  7.05139029
  -3.86467898  8.95469596  7.06945581
   3.88261678  2.24161805  7.04936966
   1.94223821  5.60030937  7.05252779
  -0.00782652  8.95623586  7.06969288
   7.75879842  2.23627164  7.05391517
   5.82260005  5.59989013  7.05177509
   3.88174545  8.96455922  7.05594156
  -5.81600827 10.07751067  3.91496903
  -1.93862817  3.35790295  3.91201666
  -3.87814694  6.72027686  3.91387618
  -1.93838419 10.07551407  3.91422296
   1.94078244  3.35888345  3.91169150
   0.00176099  6.72012383  3.91448372
   1.93909482 10.07766150  3.91505504
   5.82012830  3.35865102  3.91139912
   3.88035466  6.72099988  3.91307892
   1.93961942  1.11981749  0.79183948
   0.00001932  4.47930336  0.79183948
  -1.93958140  7.83878994  0.79183948
   5.81881905  1.11981749  0.79183948
   3.87921882  4.47930336  0.79183948
   1.93961812  7.83878994  0.79183948
   9.69801903  1.11981749  0.79183948
   7.75841904  4.47930336  0.79183948
   5.81881857  7.83878994  0.79183948
  -5.80780883 10.06871828 10.94885626
   9.70082006  3.34271294 10.94774774
   7.72429855  6.67995296 10.95885195
   3.87577581  0.18384008 11.05573747
   1.93945995  3.36359511 10.94695116
   0.03641731  6.67187558 10.90844413
   1.94682247 10.07450747 10.93873514
   5.82219903  3.36536263 10.95136504
   3.88284188  6.72736147 10.94785002
   0.00260519  2.23640603  9.37981428
  -1.94723215  5.59554520  9.39758294
  -3.81632386  8.95120130  9.42348515
   3.88299310  2.26637870  9.35622854
   1.96489906  5.59140807  9.36767407
  -0.05480009  8.96257593  9.42741182
   7.75828500  2.24109145  9.38277717
   5.81024958  5.59588209  9.37149128
   3.88544268  8.95683567  9.37930745
   1.94054906  1.11116440  7.85657713
  -0.00089572  4.47955571  7.85549525
  -1.93288869  7.81670022  7.83880241
   5.82333062  1.11280074  7.85829399
   3.88535693  4.48599209  7.83244399
   1.92312478  7.85164115  7.87122084
   9.69876038  1.12003937  7.85545917
   7.76120518  4.47766269  7.85236039
   5.84052490  7.85032882  7.86668925
  -5.81714327 10.07702652  6.27530256
  -1.93715730  3.35588017  6.27101478
   7.75690768  6.71555799  6.27128368
  -1.93686491 10.07724867  6.27984180
   1.93789203  3.35727841  6.27320627
   0.00857407  6.71484448  6.27058830
   1.94163385 10.07614631  6.27496721
   5.82424579  3.35611589  6.27055129
   3.88050355  6.73452203  6.28095917
   0.00182751  2.23783100  4.69220116
  -1.93822610  5.59926327  4.69418012
  -3.87472256  8.95797200  4.70035185
   3.88009055  2.23829048  4.69158693
   1.94669736  5.59890911  4.69317222
  -0.00166132  8.95807312  4.70004684
   7.75969855  2.23770510  4.69212046
   5.81540194  5.59979563  4.69383088
   3.88077204  8.96068050  4.69275676
   1.94080687  1.11821794  3.11348554
   0.00159973  4.47959848  3.11433487
  -1.93884857  7.83863061  3.11342401
   5.81901885  1.11836861  3.11352521
   3.88028513  4.47892945  3.11214394
   1.93947017  7.83918153  3.11443468
   9.69894273  1.11978120  3.11309604
   7.75841442  4.47977001  3.11419171
   5.82078937  7.83924826  3.11426029
   0.00000000  0.00000000  1.58367896
   9.69799972  3.35948610  1.58367896
   7.75839949  6.71897221  1.58367896
   3.87919998  0.00000000  1.58367896
   1.93959975  3.35948610  1.58367896
  -0.00000048  6.71897221  1.58367896
   7.75839997  0.00000000  1.58367896
   5.81879997  3.35948610  1.58367896
   3.87919951  6.71897221  1.58367896
  -0.00001955  2.23966860  0.00000000
  -1.93961966  5.59915447  0.00000000
  -3.87922001  8.95864105  0.00000000
   3.87918091  2.23966860  0.00000000
   1.93958068  5.59915447  0.00000000
  -0.00001954  8.95864105  0.00000000
   7.75838137  2.23966860  0.00000000
   5.81878090  5.59915447  0.00000000
   3.87918091  8.95864105  0.00000000
  -2.00834583  8.33040956 12.74296627
  -2.05705348  9.28036644 12.39181537
  -2.87540394  8.10269729 13.12434405
 


--------------------------------------------------------------------------------------------------------


 k-point   1 :   0.0000 0.0000 0.0000  plane waves:   74503
 k-point   2 :   0.5000 0.0000 0.0000  plane waves:   74474
 k-point   3 :   0.0000 0.5000 0.0000  plane waves:   74474
 k-point   4 :   0.5000 0.5000 0.0000  plane waves:   74474

 maximum and minimum number of plane-waves per node :      9350     9276

 maximum number of plane-waves:     74503
 maximum index in each direction: 
   IXMAX=   19   IYMAX=   19   IZMAX=   54
   IXMIN=  -19   IYMIN=  -19   IZMIN=  -54


 parallel 3D FFT for wavefunctions:
    minimum data exchange during FFTs selected (reduces bandwidth)
 parallel 3D FFT for charge:
    minimum data exchange during FFTs selected (reduces bandwidth)


 total amount of memory used by VASP MPI-rank0   409784. kBytes
=======================================================================

   base      :      30000. kBytes
   nonl-proj :      45183. kBytes
   fftplans  :      32112. kBytes
   grid      :      33354. kBytes
   one-center:       1376. kBytes
   wavefun   :     267759. kBytes
 
     INWAV:  cpu time      8.9331: real time     17.8040
 Broyden mixing: mesh for mixing (old mesh)
   NGX = 39   NGY = 39   NGZ =109
  (NGX  =160   NGY  =160   NGZ  =448)
  gives a total of 165789 points

 initial charge density was supplied:
 charge density of overlapping atoms calculated
 number of electron     872.0000000 magnetization     111.0000000
 keeping initial charge density in first step


--------------------------------------------------------------------------------------------------------


 Maximum index for augmentation-charges         2733 (set IRDMAX)


--------------------------------------------------------------------------------------------------------


 First call to EWALD:  gamma=   0.113
 Maximum number of real-space cells 4x 4x 2
 Maximum number of reciprocal cells 2x 2x 5

    FEWALD:  cpu time      0.0041: real time      0.0041


--------------------------------------- Iteration      1(   1)  ---------------------------------------


    POTLOK:  cpu time      0.3857: real time      0.3880
    SETDIJ:  cpu time      1.3421: real time      1.3474
    TRIAL :  cpu time    137.1164: real time    138.2165
    CORREC:  cpu time      0.0017: real time      0.0020
    --------------------------------------------
      LOOP:  cpu time    139.0827: real time    140.2126

 eigenvalue-minimisations  : 11584
 total energy-change (2. order) : 0.3822809E+04  (-0.1012411E+05)
 number of electron     872.0000000 magnetization     111.0000000
 augmentation part      872.0000000 magnetization     111.0000000

 DIPCOR: dipole corrections for dipol
 direction  3 min pos   305,
 dipolmoment           0.000000      0.000000      0.000344 electrons x Angstroem
 Tr[quadrupol]    -19334.961637

 energy correction for charged system         0.000000 eV
 dipol+quadrupol energy correction           -0.000000 eV
 added-field ion interaction          0.004998 eV  (added to PSCEN)


 Free energy of the ion-electron system (eV)
  ---------------------------------------------------
  alpha Z        PSCENC =      1809.86137399
  Ewald energy   TEWEN  =    567401.14933737
  -Hartree energ DENC   =   -629413.63471682
  -exchange      EXHF   =         0.00000000
  -V(xc)+E(xc)   XCENC  =      2238.44964848
  PAW double counting   =     55840.76674075   -55174.22993286
  entropy T*S    EENTRO =        -0.16720494
  eigenvalues    EBANDS =     -8731.66791384
  atomic energy  EATOM  =     69852.28122393
  ---------------------------------------------------
  free energy    TOTEN  =      3822.80855606 eV

  energy without entropy =     3822.97576100  energy(sigma->0) =     3822.89215853


--------------------------------------------------------------------------------------------------------




--------------------------------------- Iteration      1(   2)  ---------------------------------------


    TRIAL :  cpu time    142.2004: real time    143.2984
    CORREC:  cpu time      0.0014: real time      0.0014
    --------------------------------------------
      LOOP:  cpu time    142.2132: real time    143.3151

 eigenvalue-minimisations  : 12272
 total energy-change (2. order) :-0.3407129E+04  (-0.3288438E+04)
 number of electron     872.0000000 magnetization     111.0000000
 augmentation part      872.0000000 magnetization     111.0000000

 DIPCOR: dipole corrections for dipol
 direction  3 min pos   305,
 dipolmoment           0.000000      0.000000      0.000344 electrons x Angstroem
 Tr[quadrupol]    -19334.961637

 energy correction for charged system         0.000000 eV
 dipol+quadrupol energy correction           -0.000000 eV
 added-field ion interaction          0.004998 eV  (added to PSCEN)


 Free energy of the ion-electron system (eV)
  ---------------------------------------------------
  alpha Z        PSCENC =      1809.86137399
  Ewald energy   TEWEN  =    567401.14933737
  -Hartree energ DENC   =   -629413.63471682
  -exchange      EXHF   =         0.00000000
  -V(xc)+E(xc)   XCENC  =      2238.44964848
  PAW double counting   =     55840.76674075   -55174.22993286
  entropy T*S    EENTRO =        -0.27888421
  eigenvalues    EBANDS =    -12138.68564336
  atomic energy  EATOM  =     69852.28122393
  ---------------------------------------------------
  free energy    TOTEN  =       415.67914727 eV

  energy without entropy =      415.95803148  energy(sigma->0) =      415.81858937


--------------------------------------------------------------------------------------------------------




--------------------------------------- Iteration      1(   3)  ---------------------------------------


    TRIAL :  cpu time    158.1411: real time    159.4190
    CORREC:  cpu time      0.0007: real time      0.0007
    --------------------------------------------
      LOOP:  cpu time    158.1526: real time    159.4359

 eigenvalue-minimisations  : 13736
 total energy-change (2. order) :-0.1303994E+04  (-0.1115848E+04)
 number of electron     872.0000000 magnetization     111.0000000
 augmentation part      872.0000000 magnetization     111.0000000

 DIPCOR: dipole corrections for dipol
 direction  3 min pos   305,
 dipolmoment           0.000000      0.000000      0.000344 electrons x Angstroem
 Tr[quadrupol]    -19334.961637

 energy correction for charged system         0.000000 eV
 dipol+quadrupol energy correction           -0.000000 eV
 added-field ion interaction          0.004998 eV  (added to PSCEN)


 Free energy of the ion-electron system (eV)
  ---------------------------------------------------
  alpha Z        PSCENC =      1809.86137399
  Ewald energy   TEWEN  =    567401.14933737
  -Hartree energ DENC   =   -629413.63471682
  -exchange      EXHF   =         0.00000000
  -V(xc)+E(xc)   XCENC  =      2238.44964848
  PAW double counting   =     55840.76674075   -55174.22993286
  entropy T*S    EENTRO =        -0.00000000
  eigenvalues    EBANDS =    -13442.95809870
  atomic energy  EATOM  =     69852.28122393
  ---------------------------------------------------
  free energy    TOTEN  =      -888.31442386 eV

  energy without entropy =     -888.31442386  energy(sigma->0) =     -888.31442386


--------------------------------------------------------------------------------------------------------




--------------------------------------- Iteration      1(   4)  ---------------------------------------


    TRIAL :  cpu time    175.4579: real time    176.8952
    CORREC:  cpu time      0.0007: real time      0.0007
    --------------------------------------------
      LOOP:  cpu time    175.4706: real time    176.9123

 eigenvalue-minimisations  : 15520
 total energy-change (2. order) :-0.2079906E+03  (-0.2061018E+03)
 number of electron     872.0000000 magnetization     111.0000000
 augmentation part      872.0000000 magnetization     111.0000000

 DIPCOR: dipole corrections for dipol
 direction  3 min pos   305,
 dipolmoment           0.000000      0.000000      0.000344 electrons x Angstroem
 Tr[quadrupol]    -19334.961637

 energy correction for charged system         0.000000 eV
 dipol+quadrupol energy correction           -0.000000 eV
 added-field ion interaction          0.004998 eV  (added to PSCEN)


 Free energy of the ion-electron system (eV)
  ---------------------------------------------------
  alpha Z        PSCENC =      1809.86137399
  Ewald energy   TEWEN  =    567401.14933737
  -Hartree energ DENC   =   -629413.63471682
  -exchange      EXHF   =         0.00000000
  -V(xc)+E(xc)   XCENC  =      2238.44964848
  PAW double counting   =     55840.76674075   -55174.22993286
  entropy T*S    EENTRO =        -0.00000000
  eigenvalues    EBANDS =    -13650.94873674
  atomic energy  EATOM  =     69852.28122393
  ---------------------------------------------------
  free energy    TOTEN  =     -1096.30506190 eV

  energy without entropy =    -1096.30506190  energy(sigma->0) =    -1096.30506190


--------------------------------------------------------------------------------------------------------




--------------------------------------- Iteration      1(   5)  ---------------------------------------


    TRIAL :  cpu time    176.6286: real time    178.1521
    CORREC:  cpu time      0.0007: real time      0.0007
    --------------------------------------------
      LOOP:  cpu time    176.6397: real time    178.1679

 eigenvalue-minimisations  : 15792
 total energy-change (2. order) :-0.9480038E+01  (-0.9439286E+01)
 number of electron     872.0000000 magnetization     111.0000000
 augmentation part      872.0000000 magnetization     111.0000000

 DIPCOR: dipole corrections for dipol
 direction  3 min pos   305,
 dipolmoment           0.000000      0.000000      0.000344 electrons x Angstroem
 Tr[quadrupol]    -19334.961637

 energy correction for charged system         0.000000 eV
 dipol+quadrupol energy correction           -0.000000 eV
 added-field ion interaction          0.004998 eV  (added to PSCEN)


 Free energy of the ion-electron system (eV)
  ---------------------------------------------------
  alpha Z        PSCENC =      1809.86137399
  Ewald energy   TEWEN  =    567401.14933737
  -Hartree energ DENC   =   -629413.63471682
  -exchange      EXHF   =         0.00000000
  -V(xc)+E(xc)   XCENC  =      2238.44964848
  PAW double counting   =     55840.76674075   -55174.22993286
  entropy T*S    EENTRO =        -0.00000000
  eigenvalues    EBANDS =    -13660.42877517
  atomic energy  EATOM  =     69852.28122393
  ---------------------------------------------------
  free energy    TOTEN  =     -1105.78510033 eV

  energy without entropy =    -1105.78510033  energy(sigma->0) =    -1105.78510033


--------------------------------------------------------------------------------------------------------




--------------------------------------- Iteration      1(   6)  ---------------------------------------


    TRIAL :  cpu time    177.4347: real time    178.7835
    CORREC:  cpu time      0.0013: real time      0.0014
    --------------------------------------------
      LOOP:  cpu time    177.4477: real time    178.8011

 eigenvalue-minimisations  : 15960
 total energy-change (2. order) :-0.7196437E+00  (-0.7186625E+00)
 number of electron     872.0000000 magnetization     111.0000000
 augmentation part      872.0000000 magnetization     111.0000000

 DIPCOR: dipole corrections for dipol
 direction  3 min pos   305,
 dipolmoment           0.000000      0.000000      0.000344 electrons x Angstroem
 Tr[quadrupol]    -19334.961637

 energy correction for charged system         0.000000 eV
 dipol+quadrupol energy correction           -0.000000 eV
 added-field ion interaction          0.004998 eV  (added to PSCEN)


 Free energy of the ion-electron system (eV)
  ---------------------------------------------------
  alpha Z        PSCENC =      1809.86137399
  Ewald energy   TEWEN  =    567401.14933737
  -Hartree energ DENC   =   -629413.63471682
  -exchange      EXHF   =         0.00000000
  -V(xc)+E(xc)   XCENC  =      2238.44964848
  PAW double counting   =     55840.76674075   -55174.22993286
  entropy T*S    EENTRO =        -0.00000000
  eigenvalues    EBANDS =    -13661.14841889
  atomic energy  EATOM  =     69852.28122393
  ---------------------------------------------------
  free energy    TOTEN  =     -1106.50474405 eV

  energy without entropy =    -1106.50474405  energy(sigma->0) =    -1106.50474405


--------------------------------------------------------------------------------------------------------




--------------------------------------- Iteration      1(   7)  ---------------------------------------


    TRIAL :  cpu time    176.5188: real time    177.8210
    CORREC:  cpu time      0.0007: real time      0.0008
    --------------------------------------------
      LOOP:  cpu time    176.5204: real time    177.8277

 eigenvalue-minimisations  : 15720
 total energy-change (2. order) :-0.6356203E-01  (-0.6351853E-01)
 number of electron     872.0000000 magnetization     111.0000000
 augmentation part      872.0000000 magnetization     111.0000000

 DIPCOR: dipole corrections for dipol
 direction  3 min pos   305,
 dipolmoment           0.000000      0.000000      0.000344 electrons x Angstroem
 Tr[quadrupol]    -19334.961637

 energy correction for charged system         0.000000 eV
 dipol+quadrupol energy correction           -0.000000 eV
 added-field ion interaction          0.004998 eV  (added to PSCEN)


 Free energy of the ion-electron system (eV)
  ---------------------------------------------------
  alpha Z        PSCENC =      1809.86137399
  Ewald energy   TEWEN  =    567401.14933737
  -Hartree energ DENC   =   -629413.63471682
  -exchange      EXHF   =         0.00000000
  -V(xc)+E(xc)   XCENC  =      2238.44964848
  PAW double counting   =     55840.76674075   -55174.22993286
  entropy T*S    EENTRO =        -0.00000000
  eigenvalues    EBANDS =    -13661.21198092
  atomic energy  EATOM  =     69852.28122393
  ---------------------------------------------------
  free energy    TOTEN  =     -1106.56830608 eV

  energy without entropy =    -1106.56830608  energy(sigma->0) =    -1106.56830608


--------------------------------------------------------------------------------------------------------




--------------------------------------- Iteration      1(   8)  ---------------------------------------


    TRIAL :  cpu time    180.0058: real time    181.4431
    CORREC:  cpu time      0.0007: real time      0.0007
    --------------------------------------------
      LOOP:  cpu time    180.0139: real time    181.4561

 eigenvalue-minimisations  : 16104
 total energy-change (2. order) :-0.7035853E-02  (-0.7033771E-02)
 number of electron     872.0000000 magnetization     111.0000000
 augmentation part      872.0000000 magnetization     111.0000000

 DIPCOR: dipole corrections for dipol
 direction  3 min pos   305,
 dipolmoment           0.000000      0.000000      0.000344 electrons x Angstroem
 Tr[quadrupol]    -19334.961637

 energy correction for charged system         0.000000 eV
 dipol+quadrupol energy correction           -0.000000 eV
 added-field ion interaction          0.004998 eV  (added to PSCEN)


 Free energy of the ion-electron system (eV)
  ---------------------------------------------------
  alpha Z        PSCENC =      1809.86137399
  Ewald energy   TEWEN  =    567401.14933737
  -Hartree energ DENC   =   -629413.63471682
  -exchange      EXHF   =         0.00000000
  -V(xc)+E(xc)   XCENC  =      2238.44964848
  PAW double counting   =     55840.76674075   -55174.22993286
  entropy T*S    EENTRO =        -0.00000000
  eigenvalues    EBANDS =    -13661.21901677
  atomic energy  EATOM  =     69852.28122393
  ---------------------------------------------------
  free energy    TOTEN  =     -1106.57534193 eV

  energy without entropy =    -1106.57534193  energy(sigma->0) =    -1106.57534193


--------------------------------------------------------------------------------------------------------




--------------------------------------- Iteration      1(   9)  ---------------------------------------


    TRIAL :  cpu time    173.1064: real time    174.3624
    CORREC:  cpu time      0.0007: real time      0.0008
    --------------------------------------------
      LOOP:  cpu time    173.1079: real time    174.3685

 eigenvalue-minimisations  : 15504
 total energy-change (2. order) :-0.8012019E-03  (-0.8010639E-03)
 number of electron     872.0000000 magnetization     111.0000000
 augmentation part      872.0000000 magnetization     111.0000000

 DIPCOR: dipole corrections for dipol
 direction  3 min pos   305,
 dipolmoment           0.000000      0.000000      0.000344 electrons x Angstroem
 Tr[quadrupol]    -19334.961637

 energy correction for charged system         0.000000 eV
 dipol+quadrupol energy correction           -0.000000 eV
 added-field ion interaction          0.004998 eV  (added to PSCEN)


 Free energy of the ion-electron system (eV)
  ---------------------------------------------------
  alpha Z        PSCENC =      1809.86137399
  Ewald energy   TEWEN  =    567401.14933737
  -Hartree energ DENC   =   -629413.63471682
  -exchange      EXHF   =         0.00000000
  -V(xc)+E(xc)   XCENC  =      2238.44964848
  PAW double counting   =     55840.76674075   -55174.22993286
  entropy T*S    EENTRO =        -0.00000000
  eigenvalues    EBANDS =    -13661.21981797
  atomic energy  EATOM  =     69852.28122393
  ---------------------------------------------------
  free energy    TOTEN  =     -1106.57614313 eV

  energy without entropy =    -1106.57614313  energy(sigma->0) =    -1106.57614313


--------------------------------------------------------------------------------------------------------




--------------------------------------- Iteration      1(  10)  ---------------------------------------


    TRIAL :  cpu time    182.9495: real time    184.3155
    CORREC:  cpu time      0.0007: real time      0.0007
    --------------------------------------------
      LOOP:  cpu time    182.9508: real time    184.3206

 eigenvalue-minimisations  : 16368
 total energy-change (2. order) :-0.1010122E-03  (-0.1010050E-03)
 number of electron     872.0000000 magnetization     111.0000000
 augmentation part      872.0000000 magnetization     111.0000000

 DIPCOR: dipole corrections for dipol
 direction  3 min pos   305,
 dipolmoment           0.000000      0.000000      0.000344 electrons x Angstroem
 Tr[quadrupol]    -19334.961637

 energy correction for charged system         0.000000 eV
 dipol+quadrupol energy correction           -0.000000 eV
 added-field ion interaction          0.004998 eV  (added to PSCEN)


 Free energy of the ion-electron system (eV)
  ---------------------------------------------------
  alpha Z        PSCENC =      1809.86137399
  Ewald energy   TEWEN  =    567401.14933737
  -Hartree energ DENC   =   -629413.63471682
  -exchange      EXHF   =         0.00000000
  -V(xc)+E(xc)   XCENC  =      2238.44964848
  PAW double counting   =     55840.76674075   -55174.22993286
  entropy T*S    EENTRO =        -0.00000000
  eigenvalues    EBANDS =    -13661.21991899
  atomic energy  EATOM  =     69852.28122393
  ---------------------------------------------------
  free energy    TOTEN  =     -1106.57624415 eV

  energy without entropy =    -1106.57624415  energy(sigma->0) =    -1106.57624415


--------------------------------------------------------------------------------------------------------




--------------------------------------- Iteration      1(  11)  ---------------------------------------


    TRIAL :  cpu time    153.1625: real time    154.2739
    CORREC:  cpu time      0.0007: real time      0.0009
    --------------------------------------------
      LOOP:  cpu time    153.1639: real time    154.2795

 eigenvalue-minimisations  : 13288
 total energy-change (2. order) :-0.1183036E-04  (-0.1182912E-04)
 number of electron     872.0000000 magnetization     111.0000000
 augmentation part      872.0000000 magnetization     111.0000000

 DIPCOR: dipole corrections for dipol
 direction  3 min pos   305,
 dipolmoment           0.000000      0.000000      0.000344 electrons x Angstroem
 Tr[quadrupol]    -19334.961637

 energy correction for charged system         0.000000 eV
 dipol+quadrupol energy correction           -0.000000 eV
 added-field ion interaction          0.004998 eV  (added to PSCEN)


 Free energy of the ion-electron system (eV)
  ---------------------------------------------------
  alpha Z        PSCENC =      1809.86137399
  Ewald energy   TEWEN  =    567401.14933737
  -Hartree energ DENC   =   -629413.63471682
  -exchange      EXHF   =         0.00000000
  -V(xc)+E(xc)   XCENC  =      2238.44964848
  PAW double counting   =     55840.76674075   -55174.22993286
  entropy T*S    EENTRO =        -0.00000000
  eigenvalues    EBANDS =    -13661.21993082
  atomic energy  EATOM  =     69852.28122393
  ---------------------------------------------------
  free energy    TOTEN  =     -1106.57625598 eV

  energy without entropy =    -1106.57625598  energy(sigma->0) =    -1106.57625598


--------------------------------------------------------------------------------------------------------




--------------------------------------- Iteration      1(  12)  ---------------------------------------


    TRIAL :  cpu time    131.0545: real time    132.0570
    CORREC:  cpu time      0.0007: real time      0.0007
    CHARGE:  cpu time      2.7571: real time      2.7795
    --------------------------------------------
      LOOP:  cpu time    133.8241: real time    134.8529

 eigenvalue-minimisations  : 10912
 total energy-change (2. order) :-0.1581619E-05  (-0.1581549E-05)
 number of electron     871.9999999 magnetization       0.0000000
 augmentation part        4.2184427 magnetization       1.6742244

 DIPCOR: dipole corrections for dipol
 direction  3 min pos   305,
 dipolmoment           0.000000      0.000000      0.000344 electrons x Angstroem
 Tr[quadrupol]    -19334.961637

 energy correction for charged system         0.000000 eV
 dipol+quadrupol energy correction           -0.000000 eV
 added-field ion interaction          0.004998 eV  (added to PSCEN)


 Free energy of the ion-electron system (eV)
  ---------------------------------------------------
  alpha Z        PSCENC =      1809.86137399
  Ewald energy   TEWEN  =    567401.14933737
  -Hartree energ DENC   =   -629413.63471682
[...]
      9.70082      3.34271     10.94775         0.000200      0.000280      0.007187
      7.72430      6.67995     10.95885        -0.000089      0.000517      0.006480
      3.87578      0.18384     11.05574        -0.000549     -0.003933      0.008527
      1.93946      3.36360     10.94695        -0.000225     -0.000421      0.007016
      0.03642      6.67188     10.90844        -0.000623      0.000907      0.006097
      1.94682     10.07451     10.93874        -0.000218     -0.000347      0.007004
      5.82220      3.36536     10.95137         0.000044     -0.000273      0.006988
      3.88284      6.72736     10.94785        -0.000025      0.000317      0.006923
      0.00261      2.23641      9.37981         0.000154      0.000236      0.006262
     -1.94723      5.59555      9.39758        -0.000199      0.001064      0.006149
     -3.81632      8.95120      9.42349         0.000747     -0.000099      0.006600
      3.88299      2.26638      9.35623        -0.000195     -0.000573      0.006837
      1.96490      5.59141      9.36767        -0.000601      0.000531      0.006384
     -0.05480      8.96258      9.42741        -0.000575     -0.000018      0.005811
      7.75828      2.24109      9.38278        -0.000473      0.000258      0.006363
      5.81025      5.59588      9.37149        -0.000306      0.000032      0.005905
      3.88544      8.95684      9.37931        -0.000252     -0.000217      0.006331
      1.94055      1.11116      7.85658        -0.000036      0.000174      0.007091
     -0.00090      4.47956      7.85550        -0.000145      0.000267      0.007032
     -1.93289      7.81670      7.83880        -0.000023      0.000060      0.006648
      5.82333      1.11280      7.85829        -0.000287      0.000144      0.007136
      3.88536      4.48599      7.83244        -0.000387      0.000102      0.006845
      1.92312      7.85164      7.87122        -0.000086     -0.000031      0.007048
      9.69876      1.12004      7.85546        -0.000107      0.000138      0.006748
      7.76121      4.47766      7.85236        -0.000170      0.000227      0.007057
      5.84052      7.85033      7.86669        -0.000205     -0.000047      0.006815
     -5.81714     10.07703      6.27530         0.000033     -0.000068      0.006330
     -1.93716      3.35588      6.27101        -0.000045      0.000136      0.006306
      7.75691      6.71556      6.27128         0.000016      0.000156      0.006265
     -1.93686     10.07725      6.27984        -0.000066     -0.000160      0.006007
      1.93789      3.35728      6.27321        -0.000206      0.000084      0.006346
      0.00857      6.71484      6.27059        -0.000072      0.000119      0.006198
      1.94163     10.07615      6.27497        -0.000093     -0.000040      0.006243
      5.82425      3.35612      6.27055         0.000020     -0.000040      0.006349
      3.88050      6.73452      6.28096        -0.000185      0.000202      0.006180
      0.00183      2.23783      4.69220         0.000133      0.000022      0.007083
     -1.93823      5.59926      4.69418         0.000103      0.000104      0.007087
     -3.87472      8.95797      4.70035         0.000271     -0.000283      0.007102
      3.88009      2.23829      4.69159         0.000070     -0.000176      0.006976
      1.94670      5.59891      4.69317        -0.000114     -0.000003      0.007013
     -0.00166      8.95807      4.70005        -0.000002     -0.000228      0.007049
      7.75970      2.23771      4.69212         0.000053     -0.000086      0.006998
      5.81540      5.59980      4.69383         0.000196     -0.000014      0.006963
      3.88077      8.96068      4.69276         0.000004     -0.000164      0.007030
      1.94081      1.11822      3.11349         0.000188     -0.000160      0.006797
      0.00160      4.47960      3.11433         0.000113     -0.000036      0.006740
     -1.93885      7.83863      3.11342         0.000193     -0.000138      0.007025
      5.81902      1.11837      3.11353         0.000148     -0.000208      0.006643
      3.88029      4.47893      3.11214         0.000127     -0.000156      0.006720
      1.93947      7.83918      3.11443         0.000026     -0.000125      0.006752
      9.69894      1.11978      3.11310         0.000063     -0.000121      0.006664
      7.75841      4.47977      3.11419         0.000150     -0.000112      0.006735
      5.82079      7.83925      3.11426         0.000169     -0.000177      0.006865
      0.00000      0.00000      1.58368         0.004770     -0.004041     -0.001198
      9.69800      3.35949      1.58368         0.002002      0.004945     -0.003508
      7.75840      6.71897      1.58368         0.001861      0.000540     -0.001007
      3.87920      0.00000      1.58368         0.002659     -0.005052     -0.000395
      1.93960      3.35949      1.58368        -0.000339     -0.003430     -0.003645
     -0.00000      6.71897      1.58368         0.003646      0.000617     -0.000046
      7.75840      0.00000      1.58368        -0.000066     -0.003491     -0.000690
      5.81880      3.35949      1.58368         0.006593     -0.004000     -0.006329
      3.87920      6.71897      1.58368         0.002706      0.007190      0.007143
     -0.00002      2.23967      0.00000         0.001105      0.003594      0.142014
     -1.93962      5.59915      0.00000        -0.000169     -0.002054      0.141834
     -3.87922      8.95864      0.00000        -0.000528     -0.001775      0.141107
      3.87918      2.23967      0.00000         0.000363      0.001214      0.142177
      1.93958      5.59915      0.00000        -0.000542     -0.000031      0.142129
     -0.00002      8.95864      0.00000         0.000806     -0.001410      0.140989
      7.75838      2.23967      0.00000        -0.001020      0.003733      0.142108
      5.81878      5.59915      0.00000         0.001175     -0.000081      0.142263
      3.87918      8.95864      0.00000         0.000167     -0.003825      0.141157
     -2.00835      8.33041     12.74297        -0.007035     -0.004296      0.013196
     -2.05705      9.28037     12.39182        -0.004153      0.004736     -0.006694
     -2.87540      8.10270     13.12434        -0.006373     -0.001550     -0.012292
 -----------------------------------------------------------------------------------
    total drift:                               -0.000222     -0.000409     -0.014664


--------------------------------------------------------------------------------------------------------



  FREE ENERGIE OF THE ION-ELECTRON SYSTEM (eV)
  ---------------------------------------------------
  free  energy   TOTEN  =      -906.04922214 eV

  energy  without entropy=     -906.04922214  energy(sigma->0) =     -906.04922214
 


--------------------------------------------------------------------------------------------------------


    POTLOK:  cpu time      1.8994: real time      1.9078


--------------------------------------------------------------------------------------------------------


 writing wavefunctions
     LOOP+:  cpu time   6209.8694: real time   6257.4570
    4ORBIT:  cpu time      0.0000: real time      0.0000



 total charge

# of ion       s       p       d       f       tot
--------------------------------------------------
    1        1.946   5.537   0.741   0.676   8.900
    2        1.945   5.537   0.742   0.678   8.902
    3        1.944   5.542   0.714   0.667   8.867
    4        1.946   5.537   0.737   0.676   8.896
    5        1.946   5.537   0.736   0.679   8.897
    6        1.945   5.535   0.736   0.676   8.892
    7        1.945   5.536   0.735   0.678   8.894
    8        1.946   5.537   0.739   0.678   8.900
    9        1.945   5.535   0.738   0.677   8.895
   10        1.948   5.553   0.748   0.666   8.915
   11        1.948   5.553   0.748   0.665   8.915
   12        1.948   5.552   0.745   0.664   8.909
   13        1.948   5.553   0.751   0.667   8.919
   14        1.948   5.553   0.749   0.666   8.916
   15        1.948   5.552   0.745   0.664   8.909
   16        1.948   5.553   0.748   0.666   8.915
   17        1.948   5.553   0.749   0.666   8.917
   18        1.948   5.553   0.748   0.666   8.914
   19        1.948   5.553   0.748   0.666   8.914
   20        1.948   5.553   0.748   0.666   8.915
   21        1.948   5.553   0.748   0.666   8.915
   22        1.948   5.553   0.748   0.665   8.914
   23        1.948   5.553   0.748   0.666   8.915
   24        1.948   5.553   0.748   0.666   8.914
   25        1.948   5.553   0.748   0.666   8.914
   26        1.948   5.553   0.748   0.666   8.915
   27        1.948   5.553   0.748   0.665   8.914
   28        1.945   5.536   0.731   0.677   8.888
   29        1.945   5.536   0.731   0.677   8.888
   30        1.945   5.536   0.731   0.677   8.888
   31        1.945   5.536   0.731   0.677   8.888
   32        1.945   5.536   0.731   0.677   8.889
   33        1.945   5.536   0.731   0.677   8.888
   34        1.945   5.536   0.731   0.677   8.888
   35        1.945   5.536   0.731   0.677   8.888
   36        1.945   5.536   0.731   0.677   8.888
   37        1.591   3.395   0.000   0.000   4.986
   38        1.591   3.396   0.000   0.000   4.987
   39        1.591   3.400   0.000   0.000   4.991
   40        1.589   3.414   0.000   0.000   5.003
   41        1.591   3.401   0.000   0.000   4.992
   42        1.593   3.405   0.000   0.000   4.998
   43        1.591   3.397   0.000   0.000   4.988
   44        1.592   3.400   0.000   0.000   4.992
   45        1.591   3.397   0.000   0.000   4.988
   46        1.594   3.457   0.000   0.000   5.051
   47        1.593   3.461   0.000   0.000   5.054
   48        1.592   3.448   0.000   0.000   5.040
   49        1.593   3.458   0.000   0.000   5.051
   50        1.593   3.456   0.000   0.000   5.050
   51        1.592   3.449   0.000   0.000   5.041
   52        1.593   3.457   0.000   0.000   5.050
   53        1.593   3.457   0.000   0.000   5.050
   54        1.593   3.455   0.000   0.000   5.049
   55        1.591   3.462   0.000   0.000   5.054
   56        1.591   3.463   0.000   0.000   5.054
   57        1.592   3.461   0.000   0.000   5.052
   58        1.591   3.462   0.000   0.000   5.053
   59        1.592   3.463   0.000   0.000   5.055
   60        1.591   3.462   0.000   0.000   5.053
   61        1.591   3.463   0.000   0.000   5.054
   62        1.591   3.462   0.000   0.000   5.054
   63        1.591   3.462   0.000   0.000   5.054
   64        1.592   3.458   0.000   0.000   5.050
   65        1.592   3.459   0.000   0.000   5.051
   66        1.592   3.459   0.000   0.000   5.051
   67        1.592   3.460   0.000   0.000   5.052
   68        1.592   3.460   0.000   0.000   5.051
   69        1.592   3.459   0.000   0.000   5.051
   70        1.592   3.458   0.000   0.000   5.050
   71        1.592   3.460   0.000   0.000   5.052
   72        1.592   3.459   0.000   0.000   5.051
   73        1.592   3.460   0.000   0.000   5.052
   74        1.592   3.460   0.000   0.000   5.051
   75        1.592   3.458   0.000   0.000   5.050
   76        1.592   3.460   0.000   0.000   5.052
   77        1.592   3.459   0.000   0.000   5.051
   78        1.592   3.458   0.000   0.000   5.050
   79        1.592   3.460   0.000   0.000   5.051
   80        1.592   3.459   0.000   0.000   5.051
   81        1.592   3.459   0.000   0.000   5.051
   82        1.591   3.463   0.000   0.000   5.054
   83        1.591   3.462   0.000   0.000   5.054
   84        1.591   3.463   0.000   0.000   5.054
   85        1.591   3.463   0.000   0.000   5.054
   86        1.591   3.462   0.000   0.000   5.054
   87        1.591   3.463   0.000   0.000   5.054
   88        1.591   3.462   0.000   0.000   5.053
   89        1.591   3.463   0.000   0.000   5.054
   90        1.591   3.463   0.000   0.000   5.054
   91        1.593   3.455   0.000   0.000   5.048
   92        1.593   3.455   0.000   0.000   5.048
   93        1.593   3.455   0.000   0.000   5.048
   94        1.593   3.455   0.000   0.000   5.048
   95        1.593   3.455   0.000   0.000   5.049
   96        1.593   3.455   0.000   0.000   5.048
   97        1.593   3.455   0.000   0.000   5.048
   98        1.593   3.455   0.000   0.000   5.049
   99        1.593   3.455   0.000   0.000   5.048
  100        1.591   3.392   0.000   0.000   4.983
  101        1.591   3.392   0.000   0.000   4.983
  102        1.591   3.392   0.000   0.000   4.983
  103        1.591   3.392   0.000   0.000   4.983
  104        1.591   3.392   0.000   0.000   4.983
  105        1.591   3.392   0.000   0.000   4.983
  106        1.591   3.392   0.000   0.000   4.983
  107        1.591   3.392   0.000   0.000   4.983
  108        1.591   3.392   0.000   0.000   4.983
  109        1.584   3.627   0.000   0.000   5.211
  110        0.761   0.307   0.000   0.000   1.067
  111        0.832   0.328   0.000   0.000   1.160
--------------------------------------------------
tot        187.862 451.791  26.658  24.157 690.468



 magnetization (x)

# of ion       s       p       d       f       tot
--------------------------------------------------
    1       -0.000  -0.000   0.000  -0.000  -0.000
    2       -0.000  -0.000   0.000  -0.000  -0.000
    3       -0.000   0.000  -0.000   0.000  -0.000
    4       -0.000  -0.000   0.000  -0.000  -0.000
    5       -0.000  -0.000   0.000  -0.000  -0.000
    6       -0.000  -0.000   0.000  -0.000  -0.000
    7       -0.000  -0.000   0.000  -0.000  -0.000
    8       -0.000  -0.000   0.000  -0.000  -0.000
    9       -0.000  -0.000   0.000  -0.000  -0.000
   10       -0.000   0.000  -0.000  -0.000  -0.000
   11       -0.000   0.000  -0.000  -0.000  -0.000
   12       -0.000   0.000  -0.000  -0.000  -0.000
   13       -0.000   0.000  -0.000  -0.000  -0.000
   14       -0.000   0.000  -0.000  -0.000  -0.000
   15       -0.000   0.000  -0.000  -0.000  -0.000
   16       -0.000   0.000  -0.000  -0.000  -0.000
   17       -0.000   0.000  -0.000  -0.000  -0.000
   18       -0.000   0.000  -0.000  -0.000  -0.000
   19       -0.000   0.000  -0.000  -0.000  -0.000
   20       -0.000   0.000  -0.000  -0.000  -0.000
   21       -0.000   0.000  -0.000  -0.000  -0.000
   22       -0.000   0.000  -0.000  -0.000  -0.000
   23       -0.000   0.000  -0.000  -0.000  -0.000
   24       -0.000   0.000  -0.000  -0.000  -0.000
   25       -0.000   0.000  -0.000  -0.000  -0.000
   26       -0.000   0.000  -0.000  -0.000  -0.000
   27       -0.000   0.000  -0.000  -0.000  -0.000
   28       -0.000  -0.000   0.000  -0.000  -0.000
   29       -0.000  -0.000   0.000  -0.000  -0.000
   30       -0.000  -0.000   0.000  -0.000  -0.000
   31       -0.000  -0.000   0.000  -0.000  -0.000
   32       -0.000  -0.000   0.000  -0.000  -0.000
   33       -0.000  -0.000   0.000  -0.000  -0.000
   34       -0.000  -0.000   0.000  -0.000  -0.000
   35       -0.000  -0.000   0.000  -0.000  -0.000
   36       -0.000  -0.000   0.000  -0.000  -0.000
   37       -0.000  -0.000   0.000   0.000  -0.000
   38       -0.000  -0.000   0.000   0.000  -0.000
   39       -0.000  -0.000   0.000   0.000  -0.000
   40        0.000   0.000   0.000   0.000   0.000
   41       -0.000   0.000   0.000   0.000   0.000
   42       -0.000  -0.000   0.000   0.000  -0.000
   43       -0.000  -0.000   0.000   0.000  -0.000
   44       -0.000  -0.000   0.000   0.000  -0.000
   45       -0.000  -0.000   0.000   0.000  -0.000
   46       -0.000  -0.000   0.000   0.000  -0.000
   47       -0.000   0.000   0.000   0.000   0.000
   48        0.000   0.000   0.000   0.000   0.000
   49       -0.000   0.000   0.000   0.000   0.000
   50       -0.000  -0.000   0.000   0.000  -0.000
   51        0.000   0.000   0.000   0.000   0.000
   52       -0.000  -0.000   0.000   0.000  -0.000
   53       -0.000  -0.000   0.000   0.000  -0.000
   54       -0.000  -0.000   0.000   0.000  -0.000
   55        0.000   0.000   0.000   0.000   0.000
   56        0.000   0.000   0.000   0.000   0.000
   57        0.000   0.000   0.000   0.000   0.000
   58        0.000   0.000   0.000   0.000   0.000
   59        0.000   0.000   0.000   0.000   0.000
   60        0.000   0.000   0.000   0.000   0.000
   61        0.000   0.000   0.000   0.000   0.000
   62        0.000   0.000   0.000   0.000   0.000
   63        0.000   0.000   0.000   0.000   0.000
   64        0.000   0.000   0.000   0.000   0.000
   65        0.000   0.000   0.000   0.000   0.000
   66        0.000   0.000   0.000   0.000   0.000
   67        0.000   0.000   0.000   0.000   0.000
   68        0.000   0.000   0.000   0.000   0.000
   69        0.000   0.000   0.000   0.000   0.000
   70        0.000   0.000   0.000   0.000   0.000
   71        0.000   0.000   0.000   0.000   0.000
   72        0.000   0.000   0.000   0.000   0.000
   73        0.000   0.000   0.000   0.000   0.000
   74        0.000   0.000   0.000   0.000   0.000
   75        0.000   0.000   0.000   0.000   0.000
   76        0.000   0.000   0.000   0.000   0.000
   77        0.000   0.000   0.000   0.000   0.000
   78        0.000   0.000   0.000   0.000   0.000
   79        0.000   0.000   0.000   0.000   0.000
   80        0.000   0.000   0.000   0.000   0.000
   81        0.000   0.000   0.000   0.000   0.000
   82        0.000   0.000   0.000   0.000   0.000
   83        0.000   0.000   0.000   0.000   0.000
   84        0.000   0.000   0.000   0.000   0.000
   85        0.000   0.000   0.000   0.000   0.000
   86        0.000   0.000   0.000   0.000   0.000
   87        0.000   0.000   0.000   0.000   0.000
   88        0.000   0.000   0.000   0.000   0.000
   89        0.000   0.000   0.000   0.000   0.000
   90        0.000   0.000   0.000   0.000   0.000
   91       -0.000  -0.000   0.000   0.000  -0.000
   92       -0.000  -0.000   0.000   0.000  -0.000
   93       -0.000  -0.000   0.000   0.000  -0.000
   94       -0.000  -0.000   0.000   0.000  -0.000
   95       -0.000  -0.000   0.000   0.000  -0.000
   96       -0.000  -0.000   0.000   0.000  -0.000
   97       -0.000  -0.000   0.000   0.000  -0.000
   98       -0.000  -0.000   0.000   0.000  -0.000
   99       -0.000  -0.000   0.000   0.000  -0.000
  100       -0.000   0.000   0.000   0.000   0.000
  101       -0.000   0.000   0.000   0.000   0.000
  102       -0.000   0.000   0.000   0.000   0.000
  103       -0.000   0.000   0.000   0.000   0.000
  104       -0.000   0.000   0.000   0.000   0.000
  105       -0.000   0.000   0.000   0.000   0.000
  106       -0.000   0.000   0.000   0.000   0.000
  107       -0.000   0.000   0.000   0.000   0.000
  108       -0.000   0.000   0.000   0.000   0.000
  109       -0.000  -0.000   0.000   0.000  -0.000
  110        0.000  -0.000   0.000   0.000   0.000
  111        0.000  -0.000   0.000   0.000   0.000
--------------------------------------------------
tot         -0.000   0.000   0.000  -0.000  -0.000
 

 total amount of memory used by VASP MPI-rank0   409784. kBytes
=======================================================================

   base      :      30000. kBytes
   nonl-proj :      45183. kBytes
   fftplans  :      32112. kBytes
   grid      :      33354. kBytes
   one-center:       1376. kBytes
   wavefun   :     267759. kBytes
 
  
  
 General timing and accounting informations for this job:
 ========================================================
  
                  Total CPU time used (sec):     6271.295
                            User time (sec):     5905.951
                          System time (sec):      365.344
                         Elapsed time (sec):     6329.656
  
                   Maximum memory used (kb):     1054988.
                   Average memory used (kb):          N/A
  
                          Minor page faults:      7501828
                          Major page faults:           37
                 Voluntary context switches:        55856
