       N       E                     dE             d eps       ncg     rms          rms(c)
DAV:   1     0.112648125047E+03    0.11265E+03   -0.83000E+03    96   0.426E+02
DAV:   2    -0.493247477786E+02   -0.16197E+03   -0.15807E+03   112   0.100E+02
DAV:   3    -0.711341999292E+02   -0.21809E+02   -0.21745E+02   128   0.409E+01
DAV:   4    -0.713227952560E+02   -0.18860E+00   -0.18746E+00    96   0.393E+00
DAV:   5    -0.713263861938E+02   -0.35909E-02   -0.35899E-02    80   0.490E-01    0.140E+01
RMM:   6    -0.669922161560E+02    0.43342E+01   -0.42549E+00    85   0.729E+00    0.778E+00
RMM:   7    -0.656102674588E+02    0.13819E+01   -0.59634E+00    94   0.825E+00    0.248E+00
RMM:   8    -0.655501403958E+02    0.60127E-01   -0.37637E-01    95   0.256E+00    0.829E-01
RMM:   9    -0.655305947758E+02    0.19546E-01   -0.79983E-02    93   0.109E+00    0.207E-01
RMM:  10    -0.655366524989E+02   -0.60577E-02   -0.25199E-02    98   0.506E-01    0.162E-01
RMM:  11    -0.655432949654E+02   -0.66425E-02   -0.54712E-03    95   0.307E-01    0.116E-01
RMM:  12    -0.655490480663E+02   -0.57531E-02   -0.47862E-03    96   0.194E-01    0.746E-02
RMM:  13    -0.655552146705E+02   -0.61666E-02   -0.24046E-03    95   0.126E-01    0.378E-02
RMM:  14    -0.655621685392E+02   -0.69539E-02   -0.14725E-03    91   0.976E-02    0.204E-02
RMM:  15    -0.655634844478E+02   -0.13159E-02   -0.54664E-04    88   0.535E-02    0.197E-02
RMM:  16    -0.655655000545E+02   -0.20156E-02   -0.37358E-04    86   0.494E-02    0.562E-03
RMM:  17    -0.655658167293E+02   -0.31667E-03   -0.13889E-04    85   0.255E-02    0.586E-03
RMM:  18    -0.655661862040E+02   -0.36947E-03   -0.50097E-05    77   0.171E-02    0.343E-03
RMM:  19    -0.655662750672E+02   -0.88863E-04   -0.18285E-05    69   0.107E-02
   1 F= -.65628888E+02 E0= -.65628888E+02  d E =-.867136E-11
